# vtk DataFile Version 3.0
Generated by easyFVM
ASCII
DATASET UNSTRUCTURED_GRID
POINTS 7189 double
0.0023537 -1.74e-18 -0.01375
0.00170133 -3.04e-18 -0.01375
4.8963e-05 0.00230474 -0.01375
4.8963e-05 0.00165237 -0.01375
4.8963e-05 0.001 -0.01375
0.000431646 0.00092388 -0.01375
0.00075607 0.0007071 -0.01375
0.00097284 0.00038268 -0.01375
0.00104896 -3.91e-18 -0.01375
0.0023537 0.00230474 -0.01375
0.00120133 0.00230474 -0.01375
0.0023537 0.00115237 -0.01375
0.00166327 0.00076753 -0.01375
0.00155489 0.00150593 -0.01375
0.00081649 0.0016143 -0.01375
0.0020407 2.83e-08 -0.0123922
0.0017277 5.66e-08 -0.0110345
0.00156013 2.83e-08 -0.0125156
0.00141894 5.66e-08 -0.0112812
4.8963e-05 0.00230477 -0.012725
4.8963e-05 0.0023048 -0.0116999
4.8963e-05 0.0016524 -0.012725
4.8963e-05 0.00165243 -0.0116999
4.8963e-05 0.00100003 -0.012725
4.8963e-05 0.00100006 -0.0116999
0.000431646 0.0009239 -0.012725
0.000427704 0.00092555 -0.0116705
0.00075607 0.00070714 -0.012725
0.00074085 0.0007218 -0.0116002
0.00097284 0.00038271 -0.012725
0.00096135 0.00040932 -0.0115238
0.00104896 2.83e-08 -0.012725
0.00104896 -6.98e-16 -0.0114866
0.0020407 0.00230477 -0.0123922
0.0017277 0.0023048 -0.0110345
0.00114656 0.00230477 -0.0126085
0.0010918 0.0023048 -0.011467
0.0020407 0.0011524 -0.0123922
0.0017277 0.00115243 -0.0110345
0.00153014 0.00076756 -0.0125229
0.00139701 0.00076758 -0.0112958
0.00144342 0.00150595 -0.0125436
0.00133196 0.00150598 -0.0113372
0.00079896 0.00161434 -0.012669
0.000781428 0.00161437 -0.011588
0.00345133 -3.26e-18 -0.01375
0.004549 -3.91e-18 -0.01375
0.00315117 0.00227516 -0.01375
0.0039486 0.00224557 -0.01375
0.00338055 0.00113612 -0.01375
0.0044074 0.00111986 -0.01375
0.00329484 1.42e-08 -0.0125053
0.004549 -3.49e-16 -0.0126183
0.00313834 2.83e-08 -0.0112605
0.004549 -6.98e-16 -0.0114866
0.0029956 0.00227356 -0.0125053
0.00395049 0.00224234 -0.0126183
0.00284003 0.00227195 -0.0112605
0.00395234 0.0022391 -0.0114866
0.00313834 0.0011524 -0.0123922
0.0044026 0.00113807 -0.0126183
0.0030628 0.00115436 -0.0112605
0.00439787 0.00115629 -0.0114866
4.8963e-05 0.00340234 -0.01375
4.8963e-05 0.0044999 -0.01375
0.00232785 0.00310005 -0.01375
0.002302 0.00389537 -0.01375
0.001191 0.00333005 -0.01375
0.00118068 0.00435537 -0.01375
4.8963e-05 0.00340237 -0.012725
4.8963e-05 0.0045 -0.012725
4.8963e-05 0.0034024 -0.0117
4.8963e-05 0.0045 -0.0117
0.00201806 0.00317387 -0.012401
0.0019954 0.004043 -0.01241
0.00170827 0.00324768 -0.0110522
0.00168883 0.00419057 -0.01107
0.0011307 0.0033381 -0.0126134
0.00111482 0.0043714 -0.0126183
0.00107038 0.00334614 -0.0114768
0.00104896 0.00438748 -0.0114866
0.00327555 0.00313618 -0.0115
0.00325477 0.00315756 -0.012625
0.003234 0.00317894 -0.01375
0.0022979 -6.98e-16 -0.010222
0.00249896 -6.98e-16 -0.00925
0.0022885 0.00195405 -0.0102427
0.00249896 0.0018873 -0.00925
0.0022932 0.00097703 -0.0102324
0.00249896 0.00094365 -0.00925
0.0034234 -3.49e-16 -0.0102952
0.00352396 -3.49e-16 -0.00925
0.004549 -3.5e-16 -0.0103683
0.004549 -1.48e-18 -0.00925
0.0031204 0.00209658 -0.0103055
0.00322565 0.0020632 -0.00925
0.00395234 0.0022391 -0.0103683
0.00395234 0.0022391 -0.00925
0.00334789 0.00115433 -0.0102952
0.0034484 0.00104997 -0.00925
0.00439787 0.00115629 -0.0103683
0.00439787 0.00115629 -0.00925
0.0022838 0.00293108 -0.010253
0.00249896 0.00283094 -0.00925
0.0022791 0.0039081 -0.0102634
0.00249896 0.00377459 -0.00925
0.0032963 0.0031148 -0.010375
0.0033171 0.0030934 -0.00925
4.8963e-05 0.0055 -0.01375
4.8963e-05 0.0065 -0.01375
0.00224246 0.00519768 -0.01375
0.00218293 0.0065 -0.01375
0.00118068 0.0053554 -0.01375
0.00111594 0.0065 -0.01375
4.8963e-05 0.0055 -0.012725
4.8963e-05 0.0065 -0.012725
4.8963e-05 0.0055 -0.0117
4.8963e-05 0.0065 -0.0116999
0.00209613 0.00527149 -0.012534
0.00219685 0.0065 -0.012658
0.0017351 0.00534529 -0.0110262
0.00178137 0.0065 -0.0109824
0.00111482 0.0053715 -0.0126183
0.0011229 0.0065 -0.0126915
0.00104896 0.0053875 -0.0114866
0.00104896 0.0065 -0.0114866
0.00327555 0.00483947 -0.0115
0.00327555 0.0065 -0.0115
0.00325477 0.00486085 -0.012625
0.00325477 0.0065 -0.012625
0.003234 0.0048822 -0.01375
0.003234 0.0065 -0.01375
0.0022958 0.005204 -0.0102255
0.00231247 0.0065 -0.0101876
0.00249896 0.0051373 -0.00925
0.00249896 0.0065 -0.00925
0.0032963 0.00481809 -0.010375
0.0032963 0.0065 -0.010375
0.0033171 0.0047967 -0.00925
0.0033171 0.0065 -0.00925
0.0048666 2.03e-18 -0.01375
0.00541087 4.05e-18 -0.01375
0.004649 0.0026 -0.01375
0.00541085 0.0026 -0.01375
0.0047578 0.0013 -0.01375
0.00541086 0.0013 -0.01375
0.0050997 2.28e-18 -0.012625
0.0061985 -1.57e-16 -0.0125942
0.0053328 2.35e-18 -0.0115
0.006682 -8.99e-17 -0.0114866
0.00487486 0.0026 -0.012625
0.0061985 0.0026 -0.0125942
0.00510077 0.0026 -0.0115
0.006682 0.0026 -0.0114866
0.0049873 0.0013 -0.012625
0.0061985 0.0013 -0.0125942
0.00521679 0.0013 -0.0115
0.006682 0.0013 -0.0114866
0.00498476 0.0039 -0.0115
0.006682 0.003887 -0.0114866
0.0047624 0.0039 -0.012625
0.0061985 0.003887 -0.0125942
0.0045401 0.0039 -0.01375
0.0054108 0.003887 -0.01375
0.00556588 2.28e-18 -0.010375
0.0069557 -1.57e-16 -0.010389
0.005799 2.03e-18 -0.00925
0.007049 4.05e-18 -0.00925
0.00532668 0.0026 -0.010375
0.0069557 0.0026 -0.010389
0.0055526 0.0026 -0.00925
0.007049 0.0026 -0.00925
0.00544628 0.0013 -0.010375
0.0069557 0.0013 -0.010389
0.00567578 0.0013 -0.00925
0.007049 0.0013 -0.00925
0.00520708 0.0039 -0.010375
0.0069557 0.003887 -0.010389
0.0054294 0.0039 -0.00925
0.007049 0.0039 -0.00925
0.0048687 0.0052 -0.0115
0.00497879 0.0065 -0.0114933
0.006682 0.0051935 -0.0114866
0.006682 0.0065 -0.0114866
0.00465 0.0052 -0.012625
0.0047266 0.0065 -0.0126096
0.0061985 0.0051935 -0.0125942
0.0061985 0.0065 -0.0125942
0.00443127 0.0052 -0.01375
0.0043224 0.0065 -0.01375
0.0054108 0.0051935 -0.01375
0.0054108 0.0065 -0.01375
0.00508748 0.0052 -0.010375
0.005126 0.0065 -0.010382
0.0069557 0.0051935 -0.010389
0.0069557 0.0065 -0.010389
0.0053062 0.0052 -0.00925
0.005183 0.0065 -0.00925
0.007049 0.0052 -0.00925
0.007049 0.0065 -0.00925
0.004549 -3.91e-18 -0.014375
0.004549 -3.91e-18 -0.01485
0.0039486 0.00224557 -0.0143
0.0039486 0.00224557 -0.01485
0.0044074 0.00111986 -0.0143
0.0044074 0.00111986 -0.01485
4.8963e-05 0.0044999 -0.015
4.8963e-05 0.0044999 -0.01625
0.002302 0.00389537 -0.015
0.00227915 0.00389537 -0.015924
0.00118068 0.00435537 -0.015
0.0011137 0.00435537 -0.0161782
0.0032389 0.00317894 -0.0146142
0.0032438 0.00317894 -0.0154784
4.8963e-05 0.0055 -0.015
4.8963e-05 0.0055 -0.01625
4.8963e-05 0.0065 -0.015
4.8963e-05 0.0065 -0.01625
0.00224246 0.00519768 -0.015
0.00221962 0.00519768 -0.015924
0.00218293 0.0065 -0.015
0.0021601 0.0065 -0.015924
0.00118068 0.0053554 -0.015
0.0011137 0.0053554 -0.0161782
0.00111594 0.0065 -0.015
0.00104896 0.0065 -0.0161782
0.0032389 0.0048822 -0.0146142
0.0032438 0.0048822 -0.0154784
0.0032389 0.0065 -0.0146142
0.0032438 0.0065 -0.0154784
0.00487765 2.03e-18 -0.0147856
0.00466 0.0026 -0.0147856
0.0047688 0.0013 -0.0147856
0.0045511 0.0039 -0.0147856
0.00444227 0.0052 -0.0147856
0.0043334 0.0065 -0.0147856
0.0059554 2.82e-08 -0.0150654
0.0065 9.51e-11 -0.0165607
0.0059554 0.0029875 -0.0151329
0.0065 0.003375 -0.0165157
0.0059554 0.00165 -0.0151554
0.0065 0.002 -0.0165607
0.0059554 0.0043185 -0.0151104
0.0065 0.00475 -0.0164708
0.0059554 0.0056592 -0.015088
0.0065 0.006125 -0.0164258
0.0059554 0.007 -0.0150654
0.0065 0.0075 -0.0163808
0.004549 2.82e-08 -0.0161579
0.004549 5.64e-08 -0.0174658
0.0039486 0.0022456 -0.0161579
0.0039599 0.00222589 -0.01778
0.0044074 0.00111989 -0.0161579
0.0043992 0.00115128 -0.0176229
4.8963e-05 0.0045 -0.017558
4.8963e-05 0.0045 -0.0188659
0.00227915 0.0038954 -0.017232
0.00216496 0.00397147 -0.0184252
0.0011137 0.0043554 -0.017486
0.000902 0.0044184 -0.0187562
0.0032438 0.00317897 -0.0167863
0.0032438 0.003179 -0.018094
4.8963e-05 0.0055 -0.017558
4.8963e-05 0.0055 -0.0188658
4.8963e-05 0.007 -0.017558
4.8963e-05 0.0075 -0.0188659
0.00221962 0.0051977 -0.017232
0.00221962 0.0051977 -0.01854
0.002536 0.007 -0.017177
0.0029119 0.0075 -0.0184298
0.0011137 0.0053554 -0.017486
0.0011137 0.0053555 -0.018794
0.00127295 0.007 -0.0174672
0.00149694 0.0075 -0.0187562
0.0032438 0.00488226 -0.0167863
0.0032438 0.00488229 -0.018094
0.00373546 0.007 -0.0166946
0.0042271 0.0075 -0.0179107
0.00487765 2.82e-08 -0.0160935
0.00487765 5.64e-08 -0.0174014
0.00466 0.00260003 -0.0160935
0.00466 0.00260006 -0.0174014
0.0047688 0.00130003 -0.0160935
0.0047688 0.00130006 -0.0174014
0.0045511 0.0039 -0.0160935
0.0045511 0.00390006 -0.0174014
0.00444227 0.0052 -0.0160935
0.00444227 0.00520006 -0.0174014
0.0048854 0.007 -0.016
0.0054374 0.0075 -0.0172143
0.007018 1.72552e-05 -0.0137412
0.0079468 1e-10 -0.0149673
0.0077666 1.72552e-05 -0.0123066
0.0089605 1e-10 -0.0132056
0.007059 0.0029918 -0.0137709
0.0079194 0.0033836 -0.0149475
0.0077666 0.00261726 -0.0123066
0.0089295 0.00338968 -0.0131919
0.0070726 0.00165 -0.0137808
0.0079468 0.002 -0.0149673
0.0077666 0.00131726 -0.0123066
0.0089605 0.002 -0.0132056
0.0077666 0.00390426 -0.0123066
0.0088986 0.00477936 -0.013178
0.0070453 0.0043271 -0.013761
0.00789208 0.0047672 -0.0149277
0.0082808 4.75e-11 -0.010785
0.0096058 9.5e-11 -0.011181
0.008424 1.01e-18 -0.00925
0.009799 -2.04e-18 -0.00925
0.0082808 0.0026 -0.010785
0.0095725 0.0033932 -0.0111742
0.008424 0.0026 -0.00925
0.009765 0.00339429 -0.00925
0.0082808 0.0013 -0.010785
0.0096058 0.002 -0.011181
0.008424 0.0013 -0.00925
0.009799 0.002 -0.00925
0.0082808 0.003887 -0.010785
0.0095392 0.0047864 -0.0111675
0.008424 0.0039 -0.00925
0.009731 0.00478857 -0.00925
0.007776 0.005689 -0.0123186
0.0088701 0.0061845 -0.0131506
0.0077593 0.0070294 -0.0123186
[...]
CELL_DATA 5712
SCALARS Temperature double
LOOKUP_TABLE default
541.423
556.308
531.858
549.879
517.92
541.079
493.64
521.408
493.185
514.79
514.665
535.593
527.792
546.017
536.38
552.668
509.97
491.234
528.379
501.31
483.815
464.089
502.34
473.117
549.011
556.114
560.701
564.597
539.673
548.487
555.02
560.538
540.073
526.139
519.377
510.299
537.013
549.708
545.92
545.463
510.637
514.391
524.082
523.118
482.27
485.423
552.375
554.258
529.201
534.728
560.755
563.232
560.916
568.203
567.543
570.95
554.757
565.787
564.439
569.706
542.294
560.534
552.422
565.384
560.014
568.317
562.937
569.347
478.05
466.975
484.74
469.023
447.965
437.952
455.265
440.418
510.436
495.971
504.394
493.889
489.554
469.999
490.828
469.753
460.266
441.736
461.634
441.662
514.821
496.921
516.029
496.735
532.779
557.75
521.84
550.089
527.209
554.444
519.189
547.521
536.813
559.69
523.104
551.465
538.064
560.397
523.119
552.076
555.644
545.12
565.175
557.402
546.903
536.423
561.704
552.882
533.575
523.684
555.554
546.006
464.627
428.991
494.988
519.159
547.851
424.039
459.473
490.019
513.077
539.59
428.788
461.35
490.212
515.297
542.344
526.384
510.444
530.718
515.485
520.769
506.024
528.699
513.274
511.656
497.843
525.434
510.176
414.29
402.656
451.242
439.989
480.843
469.058
503.306
490.633
523.51
509.324
418.297
405.611
452.364
443.28
481.685
472.463
506.017
495.312
525.931
513.755
455.416
450.788
453.478
448.933
422.189
404.291
421.825
402.879
482.227
480.924
484.285
482.063
450.943
447.532
450.792
447.534
420.928
402.429
420.998
402.548
479.387
479.478
479.202
479.52
508.386
507.095
529.276
527.281
509.196
506.625
529.215
525.49
506.864
506.413
529.059
527.611
505.501
505.458
527.894
526.469
493.747
481.35
475.054
496.551
483.111
476.568
490.474
477.883
471.315
494.384
480.46
473.584
482.479
469.846
463.21
491.1
476.152
468.716
390.611
382.668
379.071
427.352
416.697
411.135
455.433
442.621
435.5
475.216
461.62
454.566
489.162
472.476
464.029
392.072
381.923
377.203
432.693
421.292
415.39
460.159
446.33
438.637
479.427
462.921
453.946
491.238
472.016
462
421.274
412.594
426.729
418.282
450.979
436.364
460.915
443.682
399.414
378.32
400.598
380.331
400.345
380.644
402.238
382.884
401.63
397.625
400.604
395.069
383.437
387.305
422.296
425.031
448.877
451.56
404.756
408.9
404.434
407.082
390.215
393.172
357.682
342.116
363.229
345.881
359.813
342.409
365.459
346.802
363.327
342.619
370.76
348.308
374.621
351.509
376.58
353.465
395.529
386.197
403.041
389.703
419.965
410.045
427.27
413.173
383.865
369.762
376.414
366.178
407.336
391.715
409.242
392.365
431.732
414.909
433.359
415.196
388.078
371.904
390.145
372.751
365.784
344.858
353.821
337.724
358.785
340.247
350.411
335.097
370.044
348.193
355.898
339.444
372.379
350.413
356.815
340.389
341.066
328.593
334.712
325.835
342.665
330.743
334.668
326.272
346.268
336.256
335.07
328.118
376.551
399
360.294
348.536
334.235
394.925
372.154
353.577
342.135
329.653
398.627
376.293
358.661
345.129
331.786
317.051
305.284
316.122
304.835
319.941
308.393
317.437
306.361
325.918
314.612
320.071
309.233
384.87
372.881
362.371
350.378
345.495
334.363
333.877
322.61
323.541
312.905
387.964
373.647
365.965
351.835
349.476
336.362
336.722
323.746
325.769
314.207
370.077
351.389
373.065
353.369
392.486
372.804
394.731
373.317
355.437
338.119
352.612
335.874
375.558
354.613
376.243
355.162
396.321
373.555
396.752
373.915
357.955
339.64
358.662
340.143
339.937
324.078
327.265
313.668
338.452
322.296
326.551
312.867
341.202
325.266
327.649
313.65
342.648
325.839
328.34
314.242
292.223
286.024
283.632
285.535
280.455
278.78
296.069
289.342
286.696
287.407
282.126
280.24
302.96
295.891
292.987
290.271
284.248
282.011
361.289
353.825
350.477
339.176
332.248
329.325
323.234
316.198
313.438
310.026
302.056
298.644
292.268
285.358
282.684
359.848
350.201
346.119
338.511
329.164
325.172
323.048
314.004
310.289
308.539
299.915
296.655
290.598
284.22
281.809
332.425
327.63
324.618
321.435
334.169
328.312
324.798
321.384
332.445
327.707
324.748
321.554
334.694
328.628
325.056
321.611
332.256
327.757
325.002
321.893
335.047
328.936
325.436
322.004
336.622
329.796
325.791
322.105
337.93
330.676
326.331
322.45
333.698
328.653
325.601
322.281
331.063
328.025
325.771
322.919
331.53
327.677
325.247
322.318
329.836
327.352
325.411
322.824
335.453
329.558
326
322.456
332.09
328.649
326.158
323.215
336.821
330.385
326.498
322.856
332.946
329.233
326.589
323.631
329.552
326.599
324.43
321.687
326.007
325.416
324.241
322.114
329.468
326.616
324.527
321.803
326.192
325.516
324.324
322.196
329.456
326.697
324.712
322.053
326.833
325.804
324.508
322.361
328.999
326.686
324.917
322.431
327.289
326.062
324.723
322.606
328.476
326.705
325.12
322.851
322.985
324.535
324.053
322.934
321.148
324.103
323.956
323.239
323.518
324.733
324.153
323.011
321.757
324.319
324.057
323.305
324.473
325.107
324.344
323.141
322.783
324.706
324.243
323.429
325.597
325.596
324.626
323.35
323.901
325.181
324.496
323.604
326.617
326.175
324.985
323.598
324.741
325.687
324.805
323.835
327.998
327.275
325.732
324.126
325.883
326.769
325.611
324.484
327.339
326.74
325.351
323.84
325.281
326.228
325.189
324.134
328.577
327.785
326.113
324.423
326.481
327.329
326.053
324.854
329.225
328.306
326.527
324.789
327.171
327.901
326.504
325.241
317.133
313.739
311.04
309.188
308.267
317.15
313.768
311.069
309.216
308.293
317.189
313.758
311.039
309.177
308.25
317.238
313.812
311.089
309.222
308.294
317.269
313.785
311.041
309.166
308.233
317.367
313.892
311.142
309.262
308.328
317.605
314.085
311.308
309.414
308.474
317.914
314.323
311.503
309.586
308.636
317.465
313.932
311.162
309.273
308.335
317.624
314.016
311.226
309.331
308.39
317.341
313.811
311.048
309.164
308.228
317.47
313.873
311.092
309.2
308.261
317.705
314.137
311.345
309.445
308.503
317.87
314.229
311.423
309.519
308.576
318.01
314.374
311.544
309.624
308.673
318.134
314.435
311.596
309.675
308.724
317.153
313.735
311.036
309.186
308.265
317.196
313.753
311.055
309.208
308.289
317.186
313.736
311.021
309.163
308.239
317.216
313.748
311.038
309.184
308.262
317.239
313.737
310.997
309.126
308.195
317.254
313.742
311.009
309.142
308.215
317.311
313.748
310.983
309.099
308.163
317.29
313.728
310.968
309.087
308.153
317.373
313.782
311.006
309.116
308.178
536.89
534.652
536.315
534.081
535.576
533.477
535.433
533.469
536.896
535.034
540.01
540.559
539.246
539.073
540.235
541.016
540.235
540.847
565.727
571.451
572.652
572.923
572.981
559.617
569.779
572.275
572.841
572.962
565.749
571.468
572.658
572.924
572.981
559.613
569.799
572.279
572.844
572.962
565.712
571.475
572.661
572.925
572.981
559.551
569.804
572.283
572.845
572.962
565.842
571.517
572.671
572.927
572.982
559.675
569.846
572.294
572.848
572.963
566.279
571.612
572.691
572.932
572.983
560.195
569.957
572.317
572.852
572.964
566.612
571.64
572.693
572.931
572.982
561.606
570.227
572.368
572.862
572.966
566.564
571.646
572.696
572.932
572.983
561.102
570.125
572.349
572.858
572.965
566.592
571.628
572.69
572.93
572.982
561.805
570.275
572.377
572.863
572.966
566.617
571.633
572.69
572.931
572.982
561.798
570.284
572.378
572.863
572.966
435.095
468.998
466.797
430.998
415.665
417.123
418.499
421.311
429.436
433.204
458.26
466.883
465.899
475.19
443.233
447.723
431.627
434.926
425.311
427.315
377.343
359.615
312.252
305.475
308.613
305.246
310.29
376.082
370.543
352.575
360.374
357.289
332.815
343.278
339.236
326.779
330.848
325.06
372.532
346.215
329.807
325.78
333.97
329.336
320.986
319.424
317.601
313.705
322.963
319.779
374.09
352.585
360.878
341.243
333.869
346.638
321.731
314.352
324.811
358.793
342.147
326.883
309.93
288.683
347.872
335.253
320.934
304.554
284.937
308.389
302.936
295.732
287.207
277.836
302.326
297.842
291.875
284.793
277.011
305.136
300.195
293.64
285.882
277.379
302.119
297.663
291.733
284.699
276.978
306.637
301.459
294.601
286.487
277.586
357.441
339.683
323.928
307.201
287.518
351.651
333.719
317.991
301.715
283.477
341.732
329.332
315.256
299.747
282.514
343.779
327.174
312.187
297.035
281.315
341.231
324.835
310.05
295.372
280.573
325.971
317.043
306.011
293.5
279.979
334.163
323.146
310.274
296.115
280.913
330.742
320.276
307.956
294.482
280.268
320.947
313.085
303.13
291.705
279.35
324.221
315.53
304.782
292.652
279.658
319.483
311.902
302.247
291.145
279.153
355.851
339.287
324.086
307.456
287.615
337.246
326.361
313.413
298.706
282.138
323.619
315.351
304.92
292.908
279.795
320.23
312.683
303.011
291.753
279.403
327.204
318.351
307.301
294.549
280.437
323.368
315.34
305.102
293.149
279.915
316.124
309.396
300.632
290.308
278.911
314.735
308.206
299.683
289.667
278.676
313.093
306.79
298.554
288.914
278.405
309.664
303.968
296.467
287.634
277.973
317.756
310.6
301.382
290.672
279.008
315.018
308.402
299.792
289.711
278.685
356.894
340.674
325.656
308.969
288.45
342.462
330.927
317.456
301.941
283.687
348.94
335.136
320.72
304.366
284.822
333.531
323.77
311.722
297.678
281.685
327.3
318.629
307.685
294.895
280.575
337.821
327.076
314.182
299.373
282.431
316.765
309.903
300.987
290.511
278.976
310.244
304.464
296.859
287.893
278.066
319.428
312.072
302.598
291.52
279.327
509.905
544.732
503.739
540.084
481.811
522.662
487.791
527.39
493.007
480.046
521.538
495.842
469.854
456.003
496.913
469.351
525.52
538.579
552.653
558.677
519.658
532.475
549.023
555.703
533.523
510.434
513.58
498.323
523.181
544.175
543.875
544.996
508.415
513.851
522.402
522.725
480.811
485.077
550.197
553.776
526.863
534.167
559.052
562.875
551.233
564.991
564.146
569.802
545.45
562.666
561.476
568.65
533.351
557.538
548.143
563.92
558.484
567.769
562.629
569.229
474.114
466.631
482.265
469.053
447.206
440.106
454.547
441.868
507.177
495.256
498.882
492.309
488.449
470.145
490.557
469.84
460.029
442.607
461.619
441.976
513.317
496.66
515.634
496.688
530.065
556.779
521.062
549.767
522.602
552.772
517.62
546.866
535.535
559.217
522.773
551.324
537.718
560.262
523.039
552.039
539.365
525.785
559.944
550.649
531.99
519.17
556.788
546.667
520.918
509.709
551.334
540.98
465.784
439.212
490.152
513.29
545.537
436.502
461.67
484.358
505.637
536.523
436.919
462.934
488.166
512.724
541.224
507.223
494.563
521.994
510.346
503.61
491.569
521.365
509.322
497.495
485.834
520.224
508.003
429.702
421.298
454.984
445.848
476.74
466.497
497.174
485.975
521.215
509.275
428.921
418.357
455.871
448.862
481.076
474.064
504.388
495.703
525.264
514.707
457.405
454.033
454.909
451.125
427.608
412.111
424.891
407.363
482.582
481.767
484.3
482.938
451.824
448.752
451.088
447.92
422.563
404.739
421.521
403.259
479.719
480.038
479.327
479.708
508.29
507.286
529.179
527.308
508.618
506.645
528.868
525.469
506.907
506.593
529.051
527.661
505.534
505.533
527.901
526.494
486.787
483.365
500.213
495.618
483.823
479.88
498.963
493.523
477.94
473.989
497.079
490.486
414.037
408.982
438.639
433.353
458.888
453.268
477.593
472.179
496.706
487.899
408.461
402.472
442.788
436.316
466.686
458.933
485.073
475.568
498.013
486.335
419.267
412.639
427.72
419.309
443.553
432.479
459.204
442.364
402.956
384.93
406.494
387.446
402.351
386.48
406.366
388.894
404.596
399.624
403.517
398.276
388.646
391.896
423.163
425.359
448.545
451.528
406.767
409.605
406.322
407.753
393.252
394.272
370.885
354.569
372.894
356.062
371.971
353.998
373.705
355.597
374.236
352.96
377.254
355.493
378.575
356.025
377.964
355.046
402.024
393.589
406.412
394.079
422.875
415.149
428.626
416.25
388.956
374.86
385.608
374.615
409.138
394.082
409.82
393.135
432.515
416.599
433.637
415.761
390.81
374.683
391.01
373.647
372.267
350.939
358.987
342.222
369.571
349.029
358.67
341.815
373.605
351.808
358.766
342.044
373.505
351.602
357.742
341.241
366.764
360.772
351.123
345.257
367.679
362.114
350.288
344.691
369.481
365.189
349.072
344.389
396.565
416.064
380.85
365.819
345.77
414.947
396.533
380.367
364.493
343.189
412.426
391.985
373.522
357.717
340.846
352.987
343.535
336.741
323.8
355.309
346.574
337.039
324.588
359.261
351.559
337.553
325.79
408.627
400.678
390.436
383.098
374.249
367.593
358.06
350.174
337.219
326.018
404.639
392.747
384.448
372.604
366.477
354.856
350.609
338.11
335.071
322.855
379.954
362.945
378.434
359.63
401.127
383.939
399.32
379.323
360.914
343.928
362.196
346.195
378.281
357.761
377.091
356.111
398.63
376.578
397.473
374.829
360.798
342.6
359.55
341.039
344.891
328.817
331.195
317.125
346.745
330.384
332.709
318.392
343.881
327.75
329.854
315.541
343.523
326.626
329.041
314.82
335.402
332.614
302.733
300.245
339.582
336.334
304.073
301.282
344.998
340.172
305.589
300.642
393.537
388.426
376.192
371.404
360.929
356.387
341.354
334.605
304.586
297.152
382.021
376.931
361.805
356.924
343.515
338.655
323.703
318.123
297.256
291.506
341.087
333.354
328.47
324.028
341.842
333.525
328.353
323.797
340.531
333.093
328.359
323.944
341.407
333.243
328.214
323.743
339.47
332.63
328.311
324.074
340.547
332.767
328.107
323.821
340.214
332.346
327.582
323.338
339.209
331.596
326.981
322.905
338.245
331.884
327.917
323.92
334.623
330.667
327.759
324.435
337.699
331.952
328.248
324.374
334.939
331.039
328.078
324.742
338.279
331.6
327.491
323.547
334.213
330.251
327.398
324.21
337.785
331.088
327.014
323.235
333.655
329.773
327.012
323.975
339.584
332.986
328.682
324.556
337.291
332.439
328.895
325.315
339.034
332.759
328.617
324.533
336.972
332.299
328.826
325.274
338.142
332.384
328.53
324.577
336.532
332.056
328.69
325.202
336.568
331.798
328.418
324.771
335.82
331.726
328.552
325.19
334.99
331.261
328.318
325.079
334.935
331.959
328.96
326.621
333.287
331.702
329.039
327.214
334.893
331.879
328.905
326.58
333.296
331.627
328.98
327.167
334.708
331.697
328.763
326.453
333.183
331.46
328.851
327.065
334.243
331.389
328.585
326.311
332.789
331.184
328.679
326.935
333.359
330.941
328.368
326.195
331.905
330.79
328.463
326.793
331.386
329.878
327.725
325.782
329.564
329.658
327.804
326.311
332.295
330.418
328.064
326
330.634
330.252
328.166
326.581
330.563
329.345
327.337
325.479
328.614
329.052
327.383
325.976
329.877
328.824
326.938
325.147
327.859
328.464
326.943
325.613
318.672
314.686
311.635
309.59
308.583
318.62
314.679
311.643
309.603
308.598
318.593
314.62
311.581
309.543
308.538
318.522
314.607
311.59
309.56
308.56
318.505
314.543
311.517
309.487
308.487
318.432
314.551
311.557
309.542
308.548
318.348
314.546
311.599
309.611
308.629
318.195
314.497
311.614
309.661
308.695
318.423
314.521
311.532
309.523
308.532
318.472
314.531
311.55
309.549
308.562
318.471
314.5
311.481
309.456
308.458
318.484
314.487
311.476
309.459
308.465
318.365
314.544
311.601
309.618
308.639
318.445
314.581
311.644
309.669
308.693
318.239
314.516
311.633
309.684
308.72
318.335
314.558
311.673
309.727
308.765
318.766
314.715
311.65
309.6
308.592
318.865
314.755
311.681
309.63
308.621
318.701
314.656
311.597
309.552
308.545
318.808
314.704
311.635
309.586
308.579
318.6
314.561
311.513
309.473
308.469
318.703
314.611
311.552
309.508
308.503
318.523
314.479
311.44
309.407
308.406
318.567
314.495
311.447
309.41
308.407
318.492
314.457
311.428
309.401
308.402
532.982
531.731
533.111
531.839
533.528
532.261
534.552
533.191
536.664
535.19
539.974
540.552
539.121
539.036
540.234
541.03
540.238
540.856
565.15
571.353
572.633
572.919
572.98
558.685
569.58
572.234
572.833
572.96
565.272
571.385
572.641
572.921
572.98
558.855
569.631
572.244
572.837
572.961
565.395
571.415
572.648
572.922
572.98
559.055
569.683
572.256
572.839
572.961
565.687
571.483
572.663
572.925
572.981
559.43
569.772
572.276
572.843
572.962
566.227
571.597
572.687
572.93
572.982
560.105
569.918
572.306
572.849
572.963
566.605
571.638
572.692
572.931
572.982
561.591
570.219
572.365
572.861
572.966
566.543
571.64
572.694
572.932
572.983
561.061
570.107
572.343
572.857
572.965
566.591
571.627
572.689
572.93
572.982
561.803
570.273
572.376
572.863
572.966
566.617
571.633
572.69
572.931
572.982
561.798
570.284
572.377
572.863
572.966
435.312
468.813
466.03
431.605
425.603
431.464
423.25
430.532
450.88
466.341
454.6
468.232
287.371
288.055
289.572
291.998
295.462
300.078
287.945
288.641
290.176
292.607
296.008
300.438
286.934
286.718
287.666
287.528
289.293
289.332
291.913
292.292
295.612
296.411
300.31
301.217
305.912
312.919
321.239
330.911
340.098
346.077
305.909
312.335
319.545
327.011
333.523
337.556
286.005
284.041
281.404
278.256
274.788
286.623
284.565
281.803
278.505
274.873
287.994
285.727
282.686
279.057
275.06
290.186
287.584
284.097
279.938
275.36
293.313
290.232
286.108
281.194
275.787
297.474
293.751
288.778
282.862
276.355
286.524
284.481
281.739
278.465
274.859
287.153
285.014
282.144
278.718
274.945
288.54
286.189
283.037
279.276
275.135
290.735
288.049
284.45
280.159
275.435
293.804
290.646
286.422
281.391
275.854
297.796
294.022
288.985
282.992
276.399
285.609
283.705
281.149
278.096
274.734
285.414
283.54
281.023
278.018
274.707
286.272
284.267
281.576
278.363
274.825
286.146
284.161
281.495
278.313
274.807
287.742
285.513
282.523
278.955
275.026
287.778
285.544
282.547
278.97
275.031
290.11
287.52
284.049
279.908
275.35
290.452
287.81
284.269
280.045
275.397
293.449
290.348
286.195
281.248
275.806
294.17
290.958
286.658
281.537
275.904
297.684
293.928
288.911
282.943
276.382
298.501
294.617
289.432
283.266
276.491
302.719
298.176
292.135
284.96
277.069
308.991
303.453
296.138
287.472
277.929
316.377
309.639
300.842
290.453
278.963
324.831
316.672
306.232
293.948
280.216
332.631
323.083
311.204
297.299
281.505
337.615
327.158
314.39
299.493
282.379
302.715
298.174
292.136
284.964
277.071
308.473
303.023
295.818
287.274
277.862
314.898
308.417
299.919
289.865
278.755
321.495
313.934
304.128
292.553
279.696
327.184
318.667
307.758
294.908
280.54
330.686
321.577
310.001
296.378
281.076
287.485
288.403
290.173
292.884
296.679
301.689
288.062
288.997
290.786