# vtk DataFile Version 3.0
Generated by easyPDE
ASCII
DATASET UNSTRUCTURED_GRID
POINTS 729 double
0.0 0.0 0.0
0.0 0.125 0.0
0.0 0.25 0.0
0.0 0.375 0.0
0.0 0.5 0.0
0.0 0.625 0.0
0.0 0.75 0.0
0.0 0.875 0.0
0.0 1.0 0.0
0.125 0.0 0.0
0.125 0.125 0.0
0.125 0.25 0.0
0.125 0.375 0.0
0.125 0.5 0.0
0.125 0.625 0.0
0.125 0.75 0.0
0.125 0.875 0.0
0.125 1.0 0.0
0.25 0.0 0.0
0.25 0.125 0.0
0.25 0.25 0.0
0.25 0.375 0.0
0.25 0.5 0.0
0.25 0.625 0.0
0.25 0.75 0.0
0.25 0.875 0.0
0.25 1.0 0.0
0.375 0.0 0.0
0.375 0.125 0.0
0.375 0.25 0.0
0.375 0.375 0.0
0.375 0.5 0.0
0.375 0.625 0.0
0.375 0.75 0.0
0.375 0.875 0.0
0.375 1.0 0.0
0.5 0.0 0.0
0.5 0.125 0.0
0.5 0.25 0.0
0.5 0.375 0.0
0.5 0.5 0.0
0.5 0.625 0.0
0.5 0.75 0.0
0.5 0.875 0.0
0.5 1.0 0.0
0.625 0.0 0.0
0.625 0.125 0.0
0.625 0.25 0.0
0.625 0.375 0.0
0.625 0.5 0.0
0.625 0.625 0.0
0.625 0.75 0.0
0.625 0.875 0.0
0.625 1.0 0.0
0.75 0.0 0.0
0.75 0.125 0.0
0.75 0.25 0.0
0.75 0.375 0.0
0.75 0.5 0.0
0.75 0.625 0.0
0.75 0.75 0.0
0.75 0.875 0.0
0.75 1.0 0.0
0.875 0.0 0.0
0.875 0.125 0.0
0.875 0.25 0.0
0.875 0.375 0.0
0.875 0.5 0.0
0.875 0.625 0.0
0.875 0.75 0.0
0.875 0.875 0.0
0.875 1.0 0.0
1.0 0.0 0.0
1.0 0.125 0.0
1.0 0.25 0.0
1.0 0.375 0.0
1.0 0.5 0.0
1.0 0.625 0.0
1.0 0.75 0.0
1.0 0.875 0.0
1.0 1.0 0.0
0.0 0.0 0.125
0.0 0.125 0.125
0.0 0.25 0.125
0.0 0.375 0.125
0.0 0.5 0.125
0.0 0.625 0.125
0.0 0.75 0.125
0.0 0.875 0.125
0.0 1.0 0.125
0.125 0.0 0.125
0.125 0.125 0.125
0.125 0.25 0.125
0.125 0.375 0.125
0.125 0.5 0.125
0.125 0.625 0.125
0.125 0.75 0.125
0.125 0.875 0.125
0.125 1.0 0.125
0.25 0.0 0.125
0.25 0.125 0.125
0.25 0.25 0.125
0.25 0.375 0.125
0.25 0.5 0.125
0.25 0.625 0.125
0.25 0.75 0.125
0.25 0.875 0.125
0.25 1.0 0.125
0.375 0.0 0.125
0.375 0.125 0.125
0.375 0.25 0.125
0.375 0.375 0.125
0.375 0.5 0.125
0.375 0.625 0.125
0.375 0.75 0.125
0.375 0.875 0.125
0.375 1.0 0.125
0.5 0.0 0.125
0.5 0.125 0.125
0.5 0.25 0.125
0.5 0.375 0.125
0.5 0.5 0.125
0.5 0.625 0.125
0.5 0.75 0.125
0.5 0.875 0.125
0.5 1.0 0.125
0.625 0.0 0.125
0.625 0.125 0.125
0.625 0.25 0.125
0.625 0.375 0.125
0.625 0.5 0.125
0.625 0.625 0.125
0.625 0.75 0.125
0.625 0.875 0.125
0.625 1.0 0.125
0.75 0.0 0.125
0.75 0.125 0.125
0.75 0.25 0.125
0.75 0.375 0.125
0.75 0.5 0.125
0.75 0.625 0.125
0.75 0.75 0.125
0.75 0.875 0.125
0.75 1.0 0.125
0.875 0.0 0.125
0.875 0.125 0.125
0.875 0.25 0.125
0.875 0.375 0.125
0.875 0.5 0.125
0.875 0.625 0.125
0.875 0.75 0.125
0.875 0.875 0.125
0.875 1.0 0.125
1.0 0.0 0.125
1.0 0.125 0.125
1.0 0.25 0.125
1.0 0.375 0.125
1.0 0.5 0.125
1.0 0.625 0.125
1.0 0.75 0.125
1.0 0.875 0.125
1.0 1.0 0.125
0.0 0.0 0.25
0.0 0.125 0.25
0.0 0.25 0.25
0.0 0.375 0.25
0.0 0.5 0.25
0.0 0.625 0.25
0.0 0.75 0.25
0.0 0.875 0.25
0.0 1.0 0.25
0.125 0.0 0.25
0.125 0.125 0.25
0.125 0.25 0.25
0.125 0.375 0.25
0.125 0.5 0.25
0.125 0.625 0.25
0.125 0.75 0.25
0.125 0.875 0.25
0.125 1.0 0.25
0.25 0.0 0.25
0.25 0.125 0.25
0.25 0.25 0.25
0.25 0.375 0.25
0.25 0.5 0.25
0.25 0.625 0.25
0.25 0.75 0.25
0.25 0.875 0.25
0.25 1.0 0.25
0.375 0.0 0.25
0.375 0.125 0.25
0.375 0.25 0.25
0.375 0.375 0.25
0.375 0.5 0.25
0.375 0.625 0.25
0.375 0.75 0.25
0.375 0.875 0.25
0.375 1.0 0.25
0.5 0.0 0.25
0.5 0.125 0.25
0.5 0.25 0.25
0.5 0.375 0.25
0.5 0.5 0.25
0.5 0.625 0.25
0.5 0.75 0.25
0.5 0.875 0.25
0.5 1.0 0.25
0.625 0.0 0.25
0.625 0.125 0.25
0.625 0.25 0.25
0.625 0.375 0.25
0.625 0.5 0.25
0.625 0.625 0.25
0.625 0.75 0.25
0.625 0.875 0.25
0.625 1.0 0.25
0.75 0.0 0.25
0.75 0.125 0.25
0.75 0.25 0.25
0.75 0.375 0.25
0.75 0.5 0.25
0.75 0.625 0.25
0.75 0.75 0.25
0.75 0.875 0.25
0.75 1.0 0.25
0.875 0.0 0.25
0.875 0.125 0.25
0.875 0.25 0.25
0.875 0.375 0.25
0.875 0.5 0.25
0.875 0.625 0.25
0.875 0.75 0.25
0.875 0.875 0.25
0.875 1.0 0.25
1.0 0.0 0.25
1.0 0.125 0.25
1.0 0.25 0.25
1.0 0.375 0.25
1.0 0.5 0.25
1.0 0.625 0.25
1.0 0.75 0.25
1.0 0.875 0.25
1.0 1.0 0.25
0.0 0.0 0.375
0.0 0.125 0.375
0.0 0.25 0.375
0.0 0.375 0.375
0.0 0.5 0.375
0.0 0.625 0.375
0.0 0.75 0.375
0.0 0.875 0.375
0.0 1.0 0.375
0.125 0.0 0.375
0.125 0.125 0.375
0.125 0.25 0.375
0.125 0.375 0.375
0.125 0.5 0.375
0.125 0.625 0.375
0.125 0.75 0.375
0.125 0.875 0.375
0.125 1.0 0.375
0.25 0.0 0.375
0.25 0.125 0.375
0.25 0.25 0.375
0.25 0.375 0.375
0.25 0.5 0.375
0.25 0.625 0.375
0.25 0.75 0.375
0.25 0.875 0.375
0.25 1.0 0.375
0.375 0.0 0.375
0.375 0.125 0.375
0.375 0.25 0.375
0.375 0.375 0.375
0.375 0.5 0.375
0.375 0.625 0.375
0.375 0.75 0.375
0.375 0.875 0.375
0.375 1.0 0.375
0.5 0.0 0.375
0.5 0.125 0.375
0.5 0.25 0.375
0.5 0.375 0.375
0.5 0.5 0.375
0.5 0.625 0.375
0.5 0.75 0.375
0.5 0.875 0.375
0.5 1.0 0.375
0.625 0.0 0.375
0.625 0.125 0.375
0.625 0.25 0.375
0.625 0.375 0.375
0.625 0.5 0.375
0.625 0.625 0.375
0.625 0.75 0.375
0.625 0.875 0.375
0.625 1.0 0.375
0.75 0.0 0.375
0.75 0.125 0.375
0.75 0.25 0.375
0.75 0.375 0.375
0.75 0.5 0.375
0.75 0.625 0.375
0.75 0.75 0.375
0.75 0.875 0.375
0.75 1.0 0.375
0.875 0.0 0.375
0.875 0.125 0.375
0.875 0.25 0.375
0.875 0.375 0.375
0.875 0.5 0.375
0.875 0.625 0.375
0.875 0.75 0.375
0.875 0.875 0.375
0.875 1.0 0.375
1.0 0.0 0.375
1.0 0.125 0.375
1.0 0.25 0.375
1.0 0.375 0.375
1.0 0.5 0.375
1.0 0.625 0.375
1.0 0.75 0.375
1.0 0.875 0.375
1.0 1.0 0.375
0.0 0.0 0.5
0.0 0.125 0.5
0.0 0.25 0.5
0.0 0.375 0.5
0.0 0.5 0.5
0.0 0.625 0.5
0.0 0.75 0.5
0.0 0.875 0.5
0.0 1.0 0.5
0.125 0.0 0.5
0.125 0.125 0.5
0.125 0.25 0.5
0.125 0.375 0.5
0.125 0.5 0.5
0.125 0.625 0.5
0.125 0.75 0.5
0.125 0.875 0.5
0.125 1.0 0.5
0.25 0.0 0.5
0.25 0.125 0.5
0.25 0.25 0.5
0.25 0.375 0.5
0.25 0.5 0.5
0.25 0.625 0.5
0.25 0.75 0.5
0.25 0.875 0.5
0.25 1.0 0.5
0.375 0.0 0.5
0.375 0.125 0.5
0.375 0.25 0.5
0.375 0.375 0.5
0.375 0.5 0.5
0.375 0.625 0.5
0.375 0.75 0.5
0.375 0.875 0.5
0.375 1.0 0.5
0.5 0.0 0.5
0.5 0.125 0.5
0.5 0.25 0.5
0.5 0.375 0.5
0.5 0.5 0.5
0.5 0.625 0.5
0.5 0.75 0.5
0.5 0.875 0.5
0.5 1.0 0.5
0.625 0.0 0.5
0.625 0.125 0.5
0.625 0.25 0.5
0.625 0.375 0.5
0.625 0.5 0.5
0.625 0.625 0.5
0.625 0.75 0.5
0.625 0.875 0.5
0.625 1.0 0.5
0.75 0.0 0.5
0.75 0.125 0.5
0.75 0.25 0.5
0.75 0.375 0.5
0.75 0.5 0.5
0.75 0.625 0.5
0.75 0.75 0.5
0.75 0.875 0.5
0.75 1.0 0.5
0.875 0.0 0.5
0.875 0.125 0.5
0.875 0.25 0.5
0.875 0.375 0.5
0.875 0.5 0.5
0.875 0.625 0.5
0.875 0.75 0.5
0.875 0.875 0.5
0.875 1.0 0.5
1.0 0.0 0.5
1.0 0.125 0.5
1.0 0.25 0.5
1.0 0.375 0.5
1.0 0.5 0.5
1.0 0.625 0.5
1.0 0.75 0.5
1.0 0.875 0.5
1.0 1.0 0.5
0.0 0.0 0.625
0.0 0.125 0.625
0.0 0.25 0.625
0.0 0.375 0.625
0.0 0.5 0.625
0.0 0.625 0.625
0.0 0.75 0.625
0.0 0.875 0.625
0.0 1.0 0.625
0.125 0.0 0.625
0.125 0.125 0.625
0.125 0.25 0.625
0.125 0.375 0.625
0.125 0.5 0.625
0.125 0.625 0.625
0.125 0.75 0.625
0.125 0.875 0.625
0.125 1.0 0.625
0.25 0.0 0.625
0.25 0.125 0.625
0.25 0.25 0.625
0.25 0.375 0.625
0.25 0.5 0.625
0.25 0.625 0.625
0.25 0.75 0.625
0.25 0.875 0.625
0.25 1.0 0.625
0.375 0.0 0.625
0.375 0.125 0.625
0.375 0.25 0.625
0.375 0.375 0.625
0.375 0.5 0.625
0.375 0.625 0.625
0.375 0.75 0.625
0.375 0.875 0.625
0.375 1.0 0.625
0.5 0.0 0.625
0.5 0.125 0.625
0.5 0.25 0.625
0.5 0.375 0.625
0.5 0.5 0.625
0.5 0.625 0.625
0.5 0.75 0.625
0.5 0.875 0.625
0.5 1.0 0.625
0.625 0.0 0.625
0.625 0.125 0.625
0.625 0.25 0.625
0.625 0.375 0.625
0.625 0.5 0.625
0.625 0.625 0.625
0.625 0.75 0.625
0.625 0.875 0.625
0.625 1.0 0.625
0.75 0.0 0.625
0.75 0.125 0.625
0.75 0.25 0.625
0.75 0.375 0.625
0.75 0.5 0.625
0.75 0.625 0.625
0.75 0.75 0.625
0.75 0.875 0.625
0.75 1.0 0.625
0.875 0.0 0.625
0.875 0.125 0.625
0.875 0.25 0.625
0.875 0.375 0.625
0.875 0.5 0.625
0.875 0.625 0.625
0.875 0.75 0.625
0.875 0.875 0.625
0.875 1.0 0.625
1.0 0.0 0.625
1.0 0.125 0.625
1.0 0.25 0.625
1.0 0.375 0.625
1.0 0.5 0.625
1.0 0.625 0.625
1.0 0.75 0.625
1.0 0.875 0.625
1.0 1.0 0.625
0.0 0.0 0.75
0.0 0.125 0.75
0.0 0.25 0.75
0.0 0.375 0.75
0.0 0.5 0.75
0.0 0.625 0.75
0.0 0.75 0.75
0.0 0.875 0.75
0.0 1.0 0.75
0.125 0.0 0.75
0.125 0.125 0.75
0.125 0.25 0.75
0.125 0.375 0.75
0.125 0.5 0.75
0.125 0.625 0.75
0.125 0.75 0.75
0.125 0.875 0.75
0.125 1.0 0.75
0.25 0.0 0.75
0.25 0.125 0.75
0.25 0.25 0.75
0.25 0.375 0.75
0.25 0.5 0.75
0.25 0.625 0.75
0.25 0.75 0.75
0.25 0.875 0.75
0.25 1.0 0.75
0.375 0.0 0.75
0.375 0.125 0.75
0.375 0.25 0.75
0.375 0.375 0.75
0.375 0.5 0.75
0.375 0.625 0.75
0.375 0.75 0.75
0.375 0.875 0.75
0.375 1.0 0.75
0.5 0.0 0.75
0.5 0.125 0.75
0.5 0.25 0.75
0.5 0.375 0.75
0.5 0.5 0.75
0.5 0.625 0.75
0.5 0.75 0.75
0.5 0.875 0.75
0.5 1.0 0.75
0.625 0.0 0.75
0.625 0.125 0.75
0.625 0.25 0.75
0.625 0.375 0.75
0.625 0.5 0.75
0.625 0.625 0.75
0.625 0.75 0.75
0.625 0.875 0.75
0.625 1.0 0.75
0.75 0.0 0.75
0.75 0.125 0.75
0.75 0.25 0.75
0.75 0.375 0.75
0.75 0.5 0.75
0.75 0.625 0.75
0.75 0.75 0.75
0.75 0.875 0.75
0.75 1.0 0.75
0.875 0.0 0.75
0.875 0.125 0.75
0.875 0.25 0.75
0.875 0.375 0.75
0.875 0.5 0.75
0.875 0.625 0.75
0.875 0.75 0.75
0.875 0.875 0.75
0.875 1.0 0.75
1.0 0.0 0.75
1.0 0.125 0.75
1.0 0.25 0.75
1.0 0.375 0.75
1.0 0.5 0.75
1.0 0.625 0.75
1.0 0.75 0.75
1.0 0.875 0.75
1.0 1.0 0.75
0.0 0.0 0.875
0.0 0.125 0.875
0.0 0.25 0.875
0.0 0.375 0.875
0.0 0.5 0.875
0.0 0.625 0.875
0.0 0.75 0.875
0.0 0.875 0.875
0.0 1.0 0.875
0.125 0.0 0.875
0.125 0.125 0.875
0.125 0.25 0.875
0.125 0.375 0.875
0.125 0.5 0.875
0.125 0.625 0.875
0.125 0.75 0.875
0.125 0.875 0.875
0.125 1.0 0.875
0.25 0.0 0.875
0.25 0.125 0.875
0.25 0.25 0.875
0.25 0.375 0.875
0.25 0.5 0.875
0.25 0.625 0.875
0.25 0.75 0.875
0.25 0.875 0.875
0.25 1.0 0.875
0.375 0.0 0.875
0.375 0.125 0.875
0.375 0.25 0.875
0.375 0.375 0.875
0.375 0.5 0.875
0.375 0.625 0.875
0.375 0.75 0.875
0.375 0.875 0.875
0.375 1.0 0.875
0.5 0.0 0.875
0.5 0.125 0.875
0.5 0.25 0.875
0.5 0.375 0.875
0.5 0.5 0.875
0.5 0.625 0.875
0.5 0.75 0.875
0.5 0.875 0.875
0.5 1.0 0.875
0.625 0.0 0.875
0.625 0.125 0.875
0.625 0.25 0.875
0.625 0.375 0.875
0.625 0.5 0.875
0.625 0.625 0.875
0.625 0.75 0.875
0.625 0.875 0.875
0.625 1.0 0.875
0.75 0.0 0.875
0.75 0.125 0.875
0.75 0.25 0.875
0.75 0.375 0.875
0.75 0.5 0.875
0.75 0.625 0.875
0.75 0.75 0.875
0.75 0.875 0.875
0.75 1.0 0.875
0.875 0.0 0.875
0.875 0.125 0.875
0.875 0.25 0.875
0.875 0.375 0.875
0.875 0.5 0.875
0.875 0.625 0.875
0.875 0.75 0.875
0.875 0.875 0.875
0.875 1.0 0.875
[...]
CELL_DATA 512
SCALARS Temperature double
LOOKUP_TABLE default
5.437752812532087
6.161859577865171
6.982333319519288
7.9120295969322605
8.965494729774942
10.15920515191184
11.511823252032661
13.044452836690798
6.161859577845661
6.982506481532161
7.912305973792659
8.965843904483396
10.159605316230445
11.512251951568036
13.04490878863592
14.781429639729321
6.982333319506203
7.91230597380156
8.965950705936494
10.159793243351
11.512513254598963
13.045252164033753
14.78193733689909
16.749598240100944
7.912029596946063
8.965843904488016
10.159793243351706
11.512602796724998
13.045438687706357
14.782255472118822
16.750164377787602
18.979794264340544
8.965494729780819
10.159605316233169
11.512513254605544
13.045438687702006
14.782367347602973
16.750444422448343
18.980391234468023
21.506913154559378
10.159205151896744
11.512251951576605
13.04525216404727
14.782255472104206
16.75044442241551
18.980583581858575
21.50748914028154
24.370484418389808
11.511823252015077
13.044908788633931
14.7819373369128
16.75016437779103
18.980391234447247
21.507489140257164
24.37093351101784
27.61528593636122
13.044452836687112
14.781429639727925
16.749598240103882
18.979794264346246
21.506913154565552
24.370484418382098
27.6152859363546
31.29195879083533
6.161859577853519
6.98250648153515
7.912305973809681
8.965843904485082
10.159605316228772
11.512251951576717
13.044908788637448
14.781429639721473
6.98250648151623
7.9127590290065
8.96658342828345
10.160545690794905
11.513329779402973
13.046058255530724
14.782608839178037
16.749880557401834
7.912305973786796
8.966583428283784
10.160846658751716
11.513861427354463
13.046797583960569
14.78357573808454
16.751225719347595
18.980225874025
8.965843904486416
10.160545690795347
11.51386142735509
13.04705279472744
14.784106325003291
16.752122529217115
18.981724453302856
21.507450109894943
10.159605316231332
11.51332977940317
13.046797583959947
14.784106325002119
16.752440242458103
18.9825114488084
21.509021160378385
24.371101295093705
11.512251951565474
13.046058255529497
14.783575738082698
16.75212252921479
18.982511448807482
21.509558048696956
24.37259639071038
27.615959604385584
13.04490878862379
14.78260883917741
16.751225719347232
18.981724453299062
21.50902116037564
24.372596390710775
27.61708275516923
31.29272568592808
14.781429639728884
16.749880557408552
18.980225874011534
21.507450109885564
24.371101295085584
27.615959604368193
31.292725685922917
35.45865548070136
6.982333319507324
7.912305973801079
8.965950705935912
10.159793243359204
11.5125132546117
13.045252164043422
14.781937336923624
16.749598240098976
7.912305973786745
8.966583428283224
10.160846658751188
11.513861427354593
13.046797583962004
14.783575738086984
16.751225719349144
18.980225874009918
8.965950705946451
10.160846658750861
11.514308997834535
13.04759278612391
14.784682422860563
16.752662041667445
18.982122891853074
21.50759854642481
10.159793243354684
11.5138614273565
13.047592786123701
14.785068267050116
16.753462584198896
18.983458504855744
21.50971188038913
24.371356840086065
11.512513254599074
13.046797583961817
14.78468242285988
16.753462584198388
18.983937038423896
21.51087880233023
24.373559246132334
27.6163159001792
13.045252164040743
14.783575738083316
16.752662041666117
18.983458504854493
21.510878802329202
24.374347093625406
27.618382168334836
31.293210785400284
14.781937336901631
16.751225719347424
18.982122891850928
21.509711880387027
24.373559246130107
27.61838216833287
31.294711319424092
35.45947428387187
16.749598240105236
18.980225874021205
21.50759854642413
24.37135684007827
27.616315900158675
31.293210785376147
35.459474283870705
40.179983892936875
7.91202959694281
8.965843904492232
10.159793243343291
11.512602796727819
13.045438687727122
14.782255472107288
16.75016437779346
18.979794264345706
8.96584390447038
10.160545690794455
11.51386142735494
13.047052794728488
14.784106325004498
16.752122529220873
18.981724453302306
21.50745010989408
10.159793243359234
11.513861427355161
13.047592786123975
14.785068267050628
16.753462584199788
18.98345850485618
21.50971188039144
24.37135684007165
11.512602796735303
13.047052794729327
14.785068267050514
16.753931415470465
18.984431335783107
21.511326919613513
24.373877938768963
27.616432117173385
13.045438687707598
14.784106325005158
16.7534625841988
18.984431335782677
21.511908437027216
24.375286852179954
27.61905522372313
31.293457365274797
14.782255472116752
16.752122529216155
18.98345850485503
21.51132691961229
24.375286852179244
27.62000218970908
31.29590778213324
35.459920230347606
16.750164377783463
18.981724453301638
21.50971188038869
24.37387793876796
27.619055223719613
31.29590778212907
35.461685627814376
40.1808973573976
18.97979426434636
21.507450109900645
24.37135684008369
27.616432117161366
31.29345736526515
35.459920230348494
40.18089735739567
45.52990481530207
8.965494729780202
10.15960531623233
11.51251325460208
13.045438687701205
14.782367347619164
16.75044442242631
18.980391234429725
21.506913154567876
10.159605316225775
11.513329779403698
13.046797583961224
14.784106325005768
16.75244024246029
18.982511448810513
21.509021160378662
24.371101295110915
11.512513254607956
13.046797583961213
14.784682422860909
16.75346258419946
18.98393703842505
21.510878802330804
24.373559246132835
27.616315900169113
13.04543868770531
14.784106325006384
16.75346258419921
18.984431335783146
21.511908437027593
24.375286852180118
27.61905522372185
31.29345736527879
14.782367347615958
16.75244024245942
18.98393703842441
21.511908437027238
24.375904122459428
27.620568520716873
31.296315651299082
35.46007021721357
16.750444422437457
18.982511448807095
21.510878802329778
24.375286852179215
27.620568520716176
31.297340406869186
35.462754524910764
40.18129798440126
18.980391234431607
21.509021160377912
24.373559246131144
27.619055223720537
31.29631565129685
35.46275452490967
40.18324608375108
45.53088275227531
21.50691315456857
24.37110129511212
27.6163159001751
31.29345736526781
35.46007021720272
40.18129798439299
45.53088275227916
51.59212719774675
10.159205151908761
11.512251951576888
13.045252164043742
14.782255472114642
16.750444422438427
18.980583581866938
21.507489140251796
24.3704844183903
11.512251951575736
13.046058255530745
14.783575738085725
16.752122529218656
18.982511448809657
21.509558048696086
24.372596390711035
27.61595960438924
13.04525216405029
14.783575738084195
16.75266204166769
18.983458504855975
21.510878802330414
24.374347093625957
27.618382168334136
31.293210785385064
14.782255472110489
16.752122529219502
18.983458504855736
21.5113269196131
24.37528685217989
27.620002189709396
31.295907782129863
35.459920230357284
16.750444422440935
18.982511448808946
21.51087880233012
24.375286852179663
27.620568520716468
31.29734040686924
35.46275452491023
40.18129798440353
18.980583581862042
21.509558048695403
24.37434709362524
27.620002189708742
31.297340406868855
35.463744070212336
40.18400043334901
45.531168652728645
21.507489140244505
24.372596390709894
27.618382168333135
31.29590778212921
35.4627545249083
40.18400043334865
45.53317711921751
51.59310016483694
24.37048441838941
27.615959604396615
31.293210785388258
35.45992023034799
40.181297984398036
45.53116865272034
51.593100164842525
58.461484097201186
11.511823252036857
13.044908788635892
14.78193733690616
16.750164377793656
18.98039123445551
21.507489140273787
24.370933511019647
27.615285936359122
13.044908788632934
14.782608839178502
16.75122571934935
18.981724453301297
21.509021160377245
24.372596390709575
27.6170827551683
31.292725685928264
14.781937336899201
16.75122571934938
18.98212289185192
21.509711880389318
24.373559246131478
27.6183821683332
31.29471131942483
35.459474283862356
16.750164377795688
18.98172445330154
21.50971188038931
24.37387793876975
27.61905522372119
31.295907782129746
35.46168562781569
40.1808973573843
18.98039123446291
21.50902116037768
24.37355924613134
27.61905522372106
31.29631565129819
35.462754524909386
40.18324608375099
45.53088275227055
21.507489140269225
24.37259639070957
27.618382168332907
31.295907782129433
35.46275452490913
40.18400043334834
45.53317711921691
51.593100164838994
24.370933511013135
27.61708275516783
31.294711319424763
35.461685627815214
40.183246083750284
45.53317711921651
51.594902112952006
58.46228675658416
27.615285936356404
31.292725685927987
35.459474283863
40.18089735738461
45.53088275227084
51.59310016483819
58.46228675658385
66.24540836928516
13.044452836692392
14.7814296397219
16.74959824010037
18.97979426434696
21.50691315455621
24.37048441837959
27.615285936360443
31.291958790837572
14.78142963972397
16.749880557400353
18.98022587401534
21.507450109892527
24.371101295090263
27.615959604377696
31.29272568592628
35.458655480702774
16.74959824009521
18.980225874015566
21.507598546428817
24.371356840082576
27.616315900172083
31.293210785390094
35.45947428386454
40.179983892949494
18.979794264348847
21.507450109892915
24.371356840082562
27.61643211716483
31.293457365275742
35.459920230354584
40.18089735738535
45.529904815318766
21.506913154565424
24.371101295090273
27.616315900172093
31.293457365275703
35.46007021720418
40.18129798439679
45.53088275227157
51.592127197746656
24.370484418381835
27.61595960437762
31.293210785390027
35.45992023035449
40.18129798439672
45.53116865272282
51.59310016483858
58.46148409719444
27.615285936357072
31.29272568592624
35.45947428386473
40.180897357385305
45.530882752271495
51.59310016483858
58.46228675658402
66.24540836928446
31.291958790838063
35.45865548070235
40.179983892948485
45.52990481532017
51.59212719774818
58.46148409719435
66.24540836928433
75.06541677177434
