# vtk DataFile Version 3.0
Generated by easyPDE
ASCII
DATASET UNSTRUCTURED_GRID
POINTS 729 double
0.0 0.0 0.0
0.0 0.125 0.0
0.0 0.25 0.0
0.0 0.375 0.0
0.0 0.5 0.0
0.0 0.625 0.0
0.0 0.75 0.0
0.0 0.875 0.0
0.0 1.0 0.0
0.125 0.0 0.0
0.125 0.125 0.0
0.125 0.25 0.0
0.125 0.375 0.0
0.125 0.5 0.0
0.125 0.625 0.0
0.125 0.75 0.0
0.125 0.875 0.0
0.125 1.0 0.0
0.25 0.0 0.0
0.25 0.125 0.0
0.25 0.25 0.0
0.25 0.375 0.0
0.25 0.5 0.0
0.25 0.625 0.0
0.25 0.75 0.0
0.25 0.875 0.0
0.25 1.0 0.0
0.375 0.0 0.0
0.375 0.125 0.0
0.375 0.25 0.0
0.375 0.375 0.0
0.375 0.5 0.0
0.375 0.625 0.0
0.375 0.75 0.0
0.375 0.875 0.0
0.375 1.0 0.0
0.5 0.0 0.0
0.5 0.125 0.0
0.5 0.25 0.0
0.5 0.375 0.0
0.5 0.5 0.0
0.5 0.625 0.0
0.5 0.75 0.0
0.5 0.875 0.0
0.5 1.0 0.0
0.625 0.0 0.0
0.625 0.125 0.0
0.625 0.25 0.0
0.625 0.375 0.0
0.625 0.5 0.0
0.625 0.625 0.0
0.625 0.75 0.0
0.625 0.875 0.0
0.625 1.0 0.0
0.75 0.0 0.0
0.75 0.125 0.0
0.75 0.25 0.0
0.75 0.375 0.0
0.75 0.5 0.0
0.75 0.625 0.0
0.75 0.75 0.0
0.75 0.875 0.0
0.75 1.0 0.0
0.875 0.0 0.0
0.875 0.125 0.0
0.875 0.25 0.0
0.875 0.375 0.0
0.875 0.5 0.0
0.875 0.625 0.0
0.875 0.75 0.0
0.875 0.875 0.0
0.875 1.0 0.0
1.0 0.0 0.0
1.0 0.125 0.0
1.0 0.25 0.0
1.0 0.375 0.0
1.0 0.5 0.0
1.0 0.625 0.0
1.0 0.75 0.0
1.0 0.875 0.0
1.0 1.0 0.0
0.0 0.0 0.125
0.0 0.125 0.125
0.0 0.25 0.125
0.0 0.375 0.125
0.0 0.5 0.125
0.0 0.625 0.125
0.0 0.75 0.125
0.0 0.875 0.125
0.0 1.0 0.125
0.125 0.0 0.125
0.125 0.125 0.125
0.125 0.25 0.125
0.125 0.375 0.125
0.125 0.5 0.125
0.125 0.625 0.125
0.125 0.75 0.125
0.125 0.875 0.125
0.125 1.0 0.125
0.25 0.0 0.125
0.25 0.125 0.125
0.25 0.25 0.125
0.25 0.375 0.125
0.25 0.5 0.125
0.25 0.625 0.125
0.25 0.75 0.125
0.25 0.875 0.125
0.25 1.0 0.125
0.375 0.0 0.125
0.375 0.125 0.125
0.375 0.25 0.125
0.375 0.375 0.125
0.375 0.5 0.125
0.375 0.625 0.125
0.375 0.75 0.125
0.375 0.875 0.125
0.375 1.0 0.125
0.5 0.0 0.125
0.5 0.125 0.125
0.5 0.25 0.125
0.5 0.375 0.125
0.5 0.5 0.125
0.5 0.625 0.125
0.5 0.75 0.125
0.5 0.875 0.125
0.5 1.0 0.125
0.625 0.0 0.125
0.625 0.125 0.125
0.625 0.25 0.125
0.625 0.375 0.125
0.625 0.5 0.125
0.625 0.625 0.125
0.625 0.75 0.125
0.625 0.875 0.125
0.625 1.0 0.125
0.75 0.0 0.125
0.75 0.125 0.125
0.75 0.25 0.125
0.75 0.375 0.125
0.75 0.5 0.125
0.75 0.625 0.125
0.75 0.75 0.125
0.75 0.875 0.125
0.75 1.0 0.125
0.875 0.0 0.125
0.875 0.125 0.125
0.875 0.25 0.125
0.875 0.375 0.125
0.875 0.5 0.125
0.875 0.625 0.125
0.875 0.75 0.125
0.875 0.875 0.125
0.875 1.0 0.125
1.0 0.0 0.125
1.0 0.125 0.125
1.0 0.25 0.125
1.0 0.375 0.125
1.0 0.5 0.125
1.0 0.625 0.125
1.0 0.75 0.125
1.0 0.875 0.125
1.0 1.0 0.125
0.0 0.0 0.25
0.0 0.125 0.25
0.0 0.25 0.25
0.0 0.375 0.25
0.0 0.5 0.25
0.0 0.625 0.25
0.0 0.75 0.25
0.0 0.875 0.25
0.0 1.0 0.25
0.125 0.0 0.25
0.125 0.125 0.25
0.125 0.25 0.25
0.125 0.375 0.25
0.125 0.5 0.25
0.125 0.625 0.25
0.125 0.75 0.25
0.125 0.875 0.25
0.125 1.0 0.25
0.25 0.0 0.25
0.25 0.125 0.25
0.25 0.25 0.25
0.25 0.375 0.25
0.25 0.5 0.25
0.25 0.625 0.25
0.25 0.75 0.25
0.25 0.875 0.25
0.25 1.0 0.25
0.375 0.0 0.25
0.375 0.125 0.25
0.375 0.25 0.25
0.375 0.375 0.25
0.375 0.5 0.25
0.375 0.625 0.25
0.375 0.75 0.25
0.375 0.875 0.25
0.375 1.0 0.25
0.5 0.0 0.25
0.5 0.125 0.25
0.5 0.25 0.25
0.5 0.375 0.25
0.5 0.5 0.25
0.5 0.625 0.25
0.5 0.75 0.25
0.5 0.875 0.25
0.5 1.0 0.25
0.625 0.0 0.25
0.625 0.125 0.25
0.625 0.25 0.25
0.625 0.375 0.25
0.625 0.5 0.25
0.625 0.625 0.25
0.625 0.75 0.25
0.625 0.875 0.25
0.625 1.0 0.25
0.75 0.0 0.25
0.75 0.125 0.25
0.75 0.25 0.25
0.75 0.375 0.25
0.75 0.5 0.25
0.75 0.625 0.25
0.75 0.75 0.25
0.75 0.875 0.25
0.75 1.0 0.25
0.875 0.0 0.25
0.875 0.125 0.25
0.875 0.25 0.25
0.875 0.375 0.25
0.875 0.5 0.25
0.875 0.625 0.25
0.875 0.75 0.25
0.875 0.875 0.25
0.875 1.0 0.25
1.0 0.0 0.25
1.0 0.125 0.25
1.0 0.25 0.25
1.0 0.375 0.25
1.0 0.5 0.25
1.0 0.625 0.25
1.0 0.75 0.25
1.0 0.875 0.25
1.0 1.0 0.25
0.0 0.0 0.375
0.0 0.125 0.375
0.0 0.25 0.375
0.0 0.375 0.375
0.0 0.5 0.375
0.0 0.625 0.375
0.0 0.75 0.375
0.0 0.875 0.375
0.0 1.0 0.375
0.125 0.0 0.375
0.125 0.125 0.375
0.125 0.25 0.375
0.125 0.375 0.375
0.125 0.5 0.375
0.125 0.625 0.375
0.125 0.75 0.375
0.125 0.875 0.375
0.125 1.0 0.375
0.25 0.0 0.375
0.25 0.125 0.375
0.25 0.25 0.375
0.25 0.375 0.375
0.25 0.5 0.375
0.25 0.625 0.375
0.25 0.75 0.375
0.25 0.875 0.375
0.25 1.0 0.375
0.375 0.0 0.375
0.375 0.125 0.375
0.375 0.25 0.375
0.375 0.375 0.375
0.375 0.5 0.375
0.375 0.625 0.375
0.375 0.75 0.375
0.375 0.875 0.375
0.375 1.0 0.375
0.5 0.0 0.375
0.5 0.125 0.375
0.5 0.25 0.375
0.5 0.375 0.375
0.5 0.5 0.375
0.5 0.625 0.375
0.5 0.75 0.375
0.5 0.875 0.375
0.5 1.0 0.375
0.625 0.0 0.375
0.625 0.125 0.375
0.625 0.25 0.375
0.625 0.375 0.375
0.625 0.5 0.375
0.625 0.625 0.375
0.625 0.75 0.375
0.625 0.875 0.375
0.625 1.0 0.375
0.75 0.0 0.375
0.75 0.125 0.375
0.75 0.25 0.375
0.75 0.375 0.375
0.75 0.5 0.375
0.75 0.625 0.375
0.75 0.75 0.375
0.75 0.875 0.375
0.75 1.0 0.375
0.875 0.0 0.375
0.875 0.125 0.375
0.875 0.25 0.375
0.875 0.375 0.375
0.875 0.5 0.375
0.875 0.625 0.375
0.875 0.75 0.375
0.875 0.875 0.375
0.875 1.0 0.375
1.0 0.0 0.375
1.0 0.125 0.375
1.0 0.25 0.375
1.0 0.375 0.375
1.0 0.5 0.375
1.0 0.625 0.375
1.0 0.75 0.375
1.0 0.875 0.375
1.0 1.0 0.375
0.0 0.0 0.5
0.0 0.125 0.5
0.0 0.25 0.5
0.0 0.375 0.5
0.0 0.5 0.5
0.0 0.625 0.5
0.0 0.75 0.5
0.0 0.875 0.5
0.0 1.0 0.5
0.125 0.0 0.5
0.125 0.125 0.5
0.125 0.25 0.5
0.125 0.375 0.5
0.125 0.5 0.5
0.125 0.625 0.5
0.125 0.75 0.5
0.125 0.875 0.5
0.125 1.0 0.5
0.25 0.0 0.5
0.25 0.125 0.5
0.25 0.25 0.5
0.25 0.375 0.5
0.25 0.5 0.5
0.25 0.625 0.5
0.25 0.75 0.5
0.25 0.875 0.5
0.25 1.0 0.5
0.375 0.0 0.5
0.375 0.125 0.5
0.375 0.25 0.5
0.375 0.375 0.5
0.375 0.5 0.5
0.375 0.625 0.5
0.375 0.75 0.5
0.375 0.875 0.5
0.375 1.0 0.5
0.5 0.0 0.5
0.5 0.125 0.5
0.5 0.25 0.5
0.5 0.375 0.5
0.5 0.5 0.5
0.5 0.625 0.5
0.5 0.75 0.5
0.5 0.875 0.5
0.5 1.0 0.5
0.625 0.0 0.5
0.625 0.125 0.5
0.625 0.25 0.5
0.625 0.375 0.5
0.625 0.5 0.5
0.625 0.625 0.5
0.625 0.75 0.5
0.625 0.875 0.5
0.625 1.0 0.5
0.75 0.0 0.5
0.75 0.125 0.5
0.75 0.25 0.5
0.75 0.375 0.5
0.75 0.5 0.5
0.75 0.625 0.5
0.75 0.75 0.5
0.75 0.875 0.5
0.75 1.0 0.5
0.875 0.0 0.5
0.875 0.125 0.5
0.875 0.25 0.5
0.875 0.375 0.5
0.875 0.5 0.5
0.875 0.625 0.5
0.875 0.75 0.5
0.875 0.875 0.5
0.875 1.0 0.5
1.0 0.0 0.5
1.0 0.125 0.5
1.0 0.25 0.5
1.0 0.375 0.5
1.0 0.5 0.5
1.0 0.625 0.5
1.0 0.75 0.5
1.0 0.875 0.5
1.0 1.0 0.5
0.0 0.0 0.625
0.0 0.125 0.625
0.0 0.25 0.625
0.0 0.375 0.625
0.0 0.5 0.625
0.0 0.625 0.625
0.0 0.75 0.625
0.0 0.875 0.625
0.0 1.0 0.625
0.125 0.0 0.625
0.125 0.125 0.625
0.125 0.25 0.625
0.125 0.375 0.625
0.125 0.5 0.625
0.125 0.625 0.625
0.125 0.75 0.625
0.125 0.875 0.625
0.125 1.0 0.625
0.25 0.0 0.625
0.25 0.125 0.625
0.25 0.25 0.625
0.25 0.375 0.625
0.25 0.5 0.625
0.25 0.625 0.625
0.25 0.75 0.625
0.25 0.875 0.625
0.25 1.0 0.625
0.375 0.0 0.625
0.375 0.125 0.625
0.375 0.25 0.625
0.375 0.375 0.625
0.375 0.5 0.625
0.375 0.625 0.625
0.375 0.75 0.625
0.375 0.875 0.625
0.375 1.0 0.625
0.5 0.0 0.625
0.5 0.125 0.625
0.5 0.25 0.625
0.5 0.375 0.625
0.5 0.5 0.625
0.5 0.625 0.625
0.5 0.75 0.625
0.5 0.875 0.625
0.5 1.0 0.625
0.625 0.0 0.625
0.625 0.125 0.625
0.625 0.25 0.625
0.625 0.375 0.625
0.625 0.5 0.625
0.625 0.625 0.625
0.625 0.75 0.625
0.625 0.875 0.625
0.625 1.0 0.625
0.75 0.0 0.625
0.75 0.125 0.625
0.75 0.25 0.625
0.75 0.375 0.625
0.75 0.5 0.625
0.75 0.625 0.625
0.75 0.75 0.625
0.75 0.875 0.625
0.75 1.0 0.625
0.875 0.0 0.625
0.875 0.125 0.625
0.875 0.25 0.625
0.875 0.375 0.625
0.875 0.5 0.625
0.875 0.625 0.625
0.875 0.75 0.625
0.875 0.875 0.625
0.875 1.0 0.625
1.0 0.0 0.625
1.0 0.125 0.625
1.0 0.25 0.625
1.0 0.375 0.625
1.0 0.5 0.625
1.0 0.625 0.625
1.0 0.75 0.625
1.0 0.875 0.625
1.0 1.0 0.625
0.0 0.0 0.75
0.0 0.125 0.75
0.0 0.25 0.75
0.0 0.375 0.75
0.0 0.5 0.75
0.0 0.625 0.75
0.0 0.75 0.75
0.0 0.875 0.75
0.0 1.0 0.75
0.125 0.0 0.75
0.125 0.125 0.75
0.125 0.25 0.75
0.125 0.375 0.75
0.125 0.5 0.75
0.125 0.625 0.75
0.125 0.75 0.75
0.125 0.875 0.75
0.125 1.0 0.75
0.25 0.0 0.75
0.25 0.125 0.75
0.25 0.25 0.75
0.25 0.375 0.75
0.25 0.5 0.75
0.25 0.625 0.75
0.25 0.75 0.75
0.25 0.875 0.75
0.25 1.0 0.75
0.375 0.0 0.75
0.375 0.125 0.75
0.375 0.25 0.75
0.375 0.375 0.75
0.375 0.5 0.75
0.375 0.625 0.75
0.375 0.75 0.75
0.375 0.875 0.75
0.375 1.0 0.75
0.5 0.0 0.75
0.5 0.125 0.75
0.5 0.25 0.75
0.5 0.375 0.75
0.5 0.5 0.75
0.5 0.625 0.75
0.5 0.75 0.75
0.5 0.875 0.75
0.5 1.0 0.75
0.625 0.0 0.75
0.625 0.125 0.75
0.625 0.25 0.75
0.625 0.375 0.75
0.625 0.5 0.75
0.625 0.625 0.75
0.625 0.75 0.75
0.625 0.875 0.75
0.625 1.0 0.75
0.75 0.0 0.75
0.75 0.125 0.75
0.75 0.25 0.75
0.75 0.375 0.75
0.75 0.5 0.75
0.75 0.625 0.75
0.75 0.75 0.75
0.75 0.875 0.75
0.75 1.0 0.75
0.875 0.0 0.75
0.875 0.125 0.75
0.875 0.25 0.75
0.875 0.375 0.75
0.875 0.5 0.75
0.875 0.625 0.75
0.875 0.75 0.75
0.875 0.875 0.75
0.875 1.0 0.75
1.0 0.0 0.75
1.0 0.125 0.75
1.0 0.25 0.75
1.0 0.375 0.75
1.0 0.5 0.75
1.0 0.625 0.75
1.0 0.75 0.75
1.0 0.875 0.75
1.0 1.0 0.75
0.0 0.0 0.875
0.0 0.125 0.875
0.0 0.25 0.875
0.0 0.375 0.875
0.0 0.5 0.875
0.0 0.625 0.875
0.0 0.75 0.875
0.0 0.875 0.875
0.0 1.0 0.875
0.125 0.0 0.875
0.125 0.125 0.875
0.125 0.25 0.875
0.125 0.375 0.875
0.125 0.5 0.875
0.125 0.625 0.875
0.125 0.75 0.875
0.125 0.875 0.875
0.125 1.0 0.875
0.25 0.0 0.875
0.25 0.125 0.875
0.25 0.25 0.875
0.25 0.375 0.875
0.25 0.5 0.875
0.25 0.625 0.875
0.25 0.75 0.875
0.25 0.875 0.875
0.25 1.0 0.875
0.375 0.0 0.875
0.375 0.125 0.875
0.375 0.25 0.875
0.375 0.375 0.875
0.375 0.5 0.875
0.375 0.625 0.875
0.375 0.75 0.875
0.375 0.875 0.875
0.375 1.0 0.875
0.5 0.0 0.875
0.5 0.125 0.875
0.5 0.25 0.875
0.5 0.375 0.875
0.5 0.5 0.875
0.5 0.625 0.875
0.5 0.75 0.875
0.5 0.875 0.875
0.5 1.0 0.875
0.625 0.0 0.875
0.625 0.125 0.875
0.625 0.25 0.875
0.625 0.375 0.875
0.625 0.5 0.875
0.625 0.625 0.875
0.625 0.75 0.875
0.625 0.875 0.875
0.625 1.0 0.875
0.75 0.0 0.875
0.75 0.125 0.875
0.75 0.25 0.875
0.75 0.375 0.875
0.75 0.5 0.875
0.75 0.625 0.875
0.75 0.75 0.875
0.75 0.875 0.875
0.75 1.0 0.875
0.875 0.0 0.875
0.875 0.125 0.875
0.875 0.25 0.875
0.875 0.375 0.875
0.875 0.5 0.875
0.875 0.625 0.875
0.875 0.75 0.875
0.875 0.875 0.875
0.875 1.0 0.875
[...]
CELL_DATA 512
SCALARS Temperature double
LOOKUP_TABLE default
4.452055697243444
5.044904331139468
5.716651360552636
6.477822359174929
7.340326699547426
8.317654159271088
9.425084542770135
10.679895268070071
5.044904331129673
5.716793376703881
6.478048659250869
7.340612678001696
8.317981887369356
9.42543526502077
10.680269259593974
12.102012001023716
5.716651360547808
6.4780486592596045
7.340699813435991
8.318135542529044
9.425649002389418
10.6805493633082
12.1024276639234
13.713412061178486
6.477822359180915
7.340612678005808
8.318135542526628
9.425722506205668
10.680702383616392
12.102687537497506
13.713875875841815
15.53934227544303
7.340326699548912
8.317981887375002
9.425649002392321
10.680702383611534
12.102779271929919
13.714104310403506
15.53983126589101
17.608372332238023
8.317654159264588
9.425435265020631
10.68054936331502
12.102687537497019
13.714104310385975
15.539987651502907
17.60884406437417
19.952866288654036
9.425084542757343
10.680269259581802
12.102427663928495
13.713875875849542
15.53983126587595
17.60884406435175
19.953235406366783
22.609485838452205
10.67989526806292
12.102012001013902
13.713412061177975
15.539342275445641
17.60837233223807
19.952866288649044
22.609485838451057
25.61969032358108
5.044904331130124
5.716793376704095
6.478048659264232
7.340612678003731
8.317981887370117
9.425435265029025
10.680269259587531
12.102012001013426
5.716793376696431
6.47841981759214
7.341217850062073
8.318751680126244
9.4263175585296
10.68120925504401
12.102978050365593
13.71364386887688
6.478048659253065
7.341217850063755
8.318997414982219
9.426752479223884
10.681814286612992
12.103767446454142
13.714744446415551
15.539695867515379
7.340612678004787
8.318751680127367
9.426752479224694
10.68202379697954
12.104202783002773
13.715477511095184
15.540922687628228
17.608812313521504
8.317981887370257
9.42631755852938
10.681814286612385
12.104202783002195
13.715738071958029
15.541565184504266
17.610098149470712
19.953371714712986
9.425435265024387
10.681209255043724
12.103767446452549
13.715477511093457
15.541565184503938
17.610535190277556
19.95459496533659
22.61003706422158
10.680269259587803
12.102978050364934
13.7147444464146
15.540922687625388
17.610098149470346
19.954594965338654
22.610958546599587
25.620320087510834
12.102012001015744
13.713643868872245
15.539695867507296
17.608812313518154
19.953371714699127
22.610037064207233
25.6203200875138
29.03109405354031
5.716651360544116
6.478048659252582
7.340699813442357
8.318135542536847
9.425649002396709
10.680549363310712
12.102427663935165
13.713412061178735
6.478048659256005
7.341217850062956
8.318997414981373
9.426752479224376
10.681814286613612
12.103767446454478
13.714744446415109
15.539695867509678
7.340699813450468
8.31899741498365
9.427118189609004
10.682465175445042
12.104673591024676
13.71591808659765
15.541247612306405
17.608933203213834
8.318135542536073
9.426752479226854
10.682465175445396
12.104990385547728
13.716575069217901
15.542340148943776
17.61066281605814
19.953580434877082
9.425649002384608
10.681814286614872
12.104673591024602
13.71657506921756
15.542732721337135
17.611616315073324
19.955382421724348
22.61032822487813
10.680549363314348
12.103767446454144
13.715918086596872
15.542340148942793
17.61161631507275
19.95602450085537
22.612017971305143
25.620715028796393
12.10242766393139
13.714744446414842
15.541247612304062
17.610662816056948
19.955382421722465
22.61201797130422
25.621944656748873
29.031764750346483
13.713412061177412
15.539695867511174
17.608933203217713
19.953580434866538
22.61032822486584
25.62071502879241
29.031764750347744
32.896590640892725
6.477822359176341
7.340612678005305
8.318135542523258
9.425722506207906
10.680702383626882
12.10268753747846
13.713875875846359
15.539342275442854
7.3406126779979175
8.318751680125935
9.426752479223708
10.682023796979847
12.104202783003249
13.715477511097774
15.54092268762593
17.608812313519433
8.3181355425351
9.426752479225932
10.68246517544523
12.104990385547946
13.716575069218548
15.542340148943985
17.610662816059968
19.95358043485384
9.425722506215639
10.682023796981774
12.104990385548417
13.716960071850455
15.54313870492594
17.611984398243415
19.955644198710175
22.6104236876362
10.680702383613166
12.104202783005475
13.716575069218273
15.54313870492569
17.61246157839192
19.95679589364388
22.61257032607128
25.62091736448428
12.102687537500314
13.715477511095813
15.542340148943463
17.611984398242413
19.956795893643218
22.6133424434271
25.622921616043094
29.032128472738602
13.713875875846774
15.540922687627257
17.610662816057523
19.955644198708633
22.61257032606846
25.622921616039598
29.033575216778686
32.89733946485058
15.539342275442063
17.60881231351503
19.95358043486609
22.610423687626447
25.620917364468045
29.032128472751243
32.89733946485103
37.2767357485168
7.340326699548757
8.31798188737186
9.425649002383619
10.680702383604416
12.102779271942378
13.714104310395001
15.539831265867736
17.608372332239313
8.317981887371694
9.426317558529243
10.681814286611981
12.104202783003513
13.715738071959622
15.541565184506226
17.61009814947126
19.953371714718358
9.425649002392568
10.681814286613314
12.104673591024834
13.71657506921818
15.54273272133804
17.611616315074066
19.95538242172427
22.61032822486986
10.680702383604896
12.104202783005606
13.716575069218328
15.543138704926012
17.61246157839227
19.95679589364403
22.612570326071168
25.620917364483432
12.102779271944554
13.71573807195956
15.54273272133791
17.61246157839201
19.95730243186301
22.61380706060298
25.62325610493283
29.032251448531905
13.714104310406121
15.541565184505107
17.611616315073373
19.956795893643235
22.613807060602213
25.624091350357954
29.03444662616612
32.897665616197614
15.539831265868159
17.610098149471906
19.955382421722863
22.612570326069054
25.623256104930768
29.034446626164797
32.89926192614056
37.277537299771694
17.608372332243604
19.95337171471614
22.610328224877303
25.62091736447584
29.032251448508514
32.89766561618963
37.277537299773385
42.240063918886
8.317654159272815
9.42543526502763
10.680549363307104
12.102687537489157
13.714104310403545
15.53998765152231
17.608844064348617
19.952866288656217
9.425435265032172
10.681209255044305
12.103767446453585
13.71547751109541
15.541565184506018
17.610535190277787
19.954594965339112
22.61003706422598
10.680549363321743
12.103767446453217
13.715918086597764
15.542340148943897
17.61161631507375
19.95602450085616
22.612017971305256
25.6207150287943
12.102687537484908
13.715477511096893
15.542340148943822
17.611984398243177
19.95679589364391
22.613342443427584
25.6229216160408
29.032128472762007
13.714104310405718
15.541565184505256
17.61161631507362
19.956795893643715
22.613807060602625
25.6240913503581
29.03444662616658
32.89766561620273
15.53998765151791
17.610535190277833
19.956024500855552
22.61334244342691
25.62409135035772
29.03525222197393
32.89987478439785
37.27776911424828
17.608844064349697
19.95459496533826
22.612017971304265
25.622921616040127
29.03444662616393
32.899874784396985
37.27941478025789
42.24086138518935
19.952866288653933
22.610037064229296
25.62071502879831
29.032128472751513
32.897665616200044
37.27776911424337
42.24086138519029
47.86421796299571
9.425084542772884
10.680269259595036
12.102427663924587
13.713875875845055
15.539831265887425
17.608844064369865
19.953235406362907
22.609485838454024
10.680269259590197
12.102978050366819
13.714744446416534
15.540922687627024
17.61009814947156
19.95459496533828
22.610958546599427
25.620320087515964
12.10242766392509
13.714744446416587
15.541247612305693
17.61066281605889
19.955382421723968
22.612017971304624
25.621944656750237
29.031764750334727
13.713875875845929
15.540922687626887
17.610662816058888
19.955644198710786
22.612570326070276
25.62292161604075
29.03357521678033
32.89733946484096
15.53983126588588
17.610098149471394
19.955382421723794
22.612570326070134
25.62325610493235
29.034446626165384
32.899261926140895
37.277537299769556
17.60884406436817
19.954594965337904
22.612017971304336
25.622921616040443
29.03444662616512
32.89987478439737
37.27941478025781
42.24086138518867
19.95323540636559
22.610958546599033
25.621944656749868
29.033575216779784
32.89926192614032
37.27941478025753
42.242340975435546
47.864878716430056
22.60948583844902
25.620320087513075
29.03176475033563
32.89733946483987
37.27753729976933
42.240861385188026
47.86487871642973
54.237157798371406
10.67989526806899
12.102012001016634
13.713412061179408
15.539342275448327
17.608372332239952
19.952866288648913
22.609485838451644
25.619690323583054
12.102012001015378
13.713643868872612
15.539695867512233
17.608812313521593
19.953371714708155
22.6100370642153
25.620320087511157
29.0310940535422
13.713412061173663
15.539695867512442
17.60893320322212
19.953580434868982
22.61032822487604
25.62071502879871
29.031764750337107
32.896590640902005
15.539342275445872
17.608812313521764
19.953580434868933
22.61042368762685
25.620917364481276
29.032128472756764
32.897339464840364
37.27673574852665
17.60837233223968
19.953371714708055
22.610328224875985
25.620917364481226
29.032251448518014
32.897665616198715
37.27753729976979
42.24006391888356
19.952866288647684
22.610037064215312
25.62071502879859
29.03212847275667
32.897665616198665
37.27776911424475
42.24086138518819
47.864217962990764
22.609485838449864
25.620320087511228
29.03176475033717
32.89733946484031
37.27753729976974
42.240861385188175
47.8648787164297
54.237157798370966
25.619690323583416
29.031094053541455
32.89659064090084
37.27673574852701
42.240063918883955
47.86421796299067
54.237157798370866
61.45836829007084
