# vtk DataFile Version 3.0
Generated by easyPDE
ASCII
DATASET UNSTRUCTURED_GRID
POINTS 729 double
0.0 0.0 0.0
0.0 0.125 0.0
0.0 0.25 0.0
0.0 0.375 0.0
0.0 0.5 0.0
0.0 0.625 0.0
0.0 0.75 0.0
0.0 0.875 0.0
0.0 1.0 0.0
0.125 0.0 0.0
0.125 0.125 0.0
0.125 0.25 0.0
0.125 0.375 0.0
0.125 0.5 0.0
0.125 0.625 0.0
0.125 0.75 0.0
0.125 0.875 0.0
0.125 1.0 0.0
0.25 0.0 0.0
0.25 0.125 0.0
0.25 0.25 0.0
0.25 0.375 0.0
0.25 0.5 0.0
0.25 0.625 0.0
0.25 0.75 0.0
0.25 0.875 0.0
0.25 1.0 0.0
0.375 0.0 0.0
0.375 0.125 0.0
0.375 0.25 0.0
0.375 0.375 0.0
0.375 0.5 0.0
0.375 0.625 0.0
0.375 0.75 0.0
0.375 0.875 0.0
0.375 1.0 0.0
0.5 0.0 0.0
0.5 0.125 0.0
0.5 0.25 0.0
0.5 0.375 0.0
0.5 0.5 0.0
0.5 0.625 0.0
0.5 0.75 0.0
0.5 0.875 0.0
0.5 1.0 0.0
0.625 0.0 0.0
0.625 0.125 0.0
0.625 0.25 0.0
0.625 0.375 0.0
0.625 0.5 0.0
0.625 0.625 0.0
0.625 0.75 0.0
0.625 0.875 0.0
0.625 1.0 0.0
0.75 0.0 0.0
0.75 0.125 0.0
0.75 0.25 0.0
0.75 0.375 0.0
0.75 0.5 0.0
0.75 0.625 0.0
0.75 0.75 0.0
0.75 0.875 0.0
0.75 1.0 0.0
0.875 0.0 0.0
0.875 0.125 0.0
0.875 0.25 0.0
0.875 0.375 0.0
0.875 0.5 0.0
0.875 0.625 0.0
0.875 0.75 0.0
0.875 0.875 0.0
0.875 1.0 0.0
1.0 0.0 0.0
1.0 0.125 0.0
1.0 0.25 0.0
1.0 0.375 0.0
1.0 0.5 0.0
1.0 0.625 0.0
1.0 0.75 0.0
1.0 0.875 0.0
1.0 1.0 0.0
0.0 0.0 0.125
0.0 0.125 0.125
0.0 0.25 0.125
0.0 0.375 0.125
0.0 0.5 0.125
0.0 0.625 0.125
0.0 0.75 0.125
0.0 0.875 0.125
0.0 1.0 0.125
0.125 0.0 0.125
0.125 0.125 0.125
0.125 0.25 0.125
0.125 0.375 0.125
0.125 0.5 0.125
0.125 0.625 0.125
0.125 0.75 0.125
0.125 0.875 0.125
0.125 1.0 0.125
0.25 0.0 0.125
0.25 0.125 0.125
0.25 0.25 0.125
0.25 0.375 0.125
0.25 0.5 0.125
0.25 0.625 0.125
0.25 0.75 0.125
0.25 0.875 0.125
0.25 1.0 0.125
0.375 0.0 0.125
0.375 0.125 0.125
0.375 0.25 0.125
0.375 0.375 0.125
0.375 0.5 0.125
0.375 0.625 0.125
0.375 0.75 0.125
0.375 0.875 0.125
0.375 1.0 0.125
0.5 0.0 0.125
0.5 0.125 0.125
0.5 0.25 0.125
0.5 0.375 0.125
0.5 0.5 0.125
0.5 0.625 0.125
0.5 0.75 0.125
0.5 0.875 0.125
0.5 1.0 0.125
0.625 0.0 0.125
0.625 0.125 0.125
0.625 0.25 0.125
0.625 0.375 0.125
0.625 0.5 0.125
0.625 0.625 0.125
0.625 0.75 0.125
0.625 0.875 0.125
0.625 1.0 0.125
0.75 0.0 0.125
0.75 0.125 0.125
0.75 0.25 0.125
0.75 0.375 0.125
0.75 0.5 0.125
0.75 0.625 0.125
0.75 0.75 0.125
0.75 0.875 0.125
0.75 1.0 0.125
0.875 0.0 0.125
0.875 0.125 0.125
0.875 0.25 0.125
0.875 0.375 0.125
0.875 0.5 0.125
0.875 0.625 0.125
0.875 0.75 0.125
0.875 0.875 0.125
0.875 1.0 0.125
1.0 0.0 0.125
1.0 0.125 0.125
1.0 0.25 0.125
1.0 0.375 0.125
1.0 0.5 0.125
1.0 0.625 0.125
1.0 0.75 0.125
1.0 0.875 0.125
1.0 1.0 0.125
0.0 0.0 0.25
0.0 0.125 0.25
0.0 0.25 0.25
0.0 0.375 0.25
0.0 0.5 0.25
0.0 0.625 0.25
0.0 0.75 0.25
0.0 0.875 0.25
0.0 1.0 0.25
0.125 0.0 0.25
0.125 0.125 0.25
0.125 0.25 0.25
0.125 0.375 0.25
0.125 0.5 0.25
0.125 0.625 0.25
0.125 0.75 0.25
0.125 0.875 0.25
0.125 1.0 0.25
0.25 0.0 0.25
0.25 0.125 0.25
0.25 0.25 0.25
0.25 0.375 0.25
0.25 0.5 0.25
0.25 0.625 0.25
0.25 0.75 0.25
0.25 0.875 0.25
0.25 1.0 0.25
0.375 0.0 0.25
0.375 0.125 0.25
0.375 0.25 0.25
0.375 0.375 0.25
0.375 0.5 0.25
0.375 0.625 0.25
0.375 0.75 0.25
0.375 0.875 0.25
0.375 1.0 0.25
0.5 0.0 0.25
0.5 0.125 0.25
0.5 0.25 0.25
0.5 0.375 0.25
0.5 0.5 0.25
0.5 0.625 0.25
0.5 0.75 0.25
0.5 0.875 0.25
0.5 1.0 0.25
0.625 0.0 0.25
0.625 0.125 0.25
0.625 0.25 0.25
0.625 0.375 0.25
0.625 0.5 0.25
0.625 0.625 0.25
0.625 0.75 0.25
0.625 0.875 0.25
0.625 1.0 0.25
0.75 0.0 0.25
0.75 0.125 0.25
0.75 0.25 0.25
0.75 0.375 0.25
0.75 0.5 0.25
0.75 0.625 0.25
0.75 0.75 0.25
0.75 0.875 0.25
0.75 1.0 0.25
0.875 0.0 0.25
0.875 0.125 0.25
0.875 0.25 0.25
0.875 0.375 0.25
0.875 0.5 0.25
0.875 0.625 0.25
0.875 0.75 0.25
0.875 0.875 0.25
0.875 1.0 0.25
1.0 0.0 0.25
1.0 0.125 0.25
1.0 0.25 0.25
1.0 0.375 0.25
1.0 0.5 0.25
1.0 0.625 0.25
1.0 0.75 0.25
1.0 0.875 0.25
1.0 1.0 0.25
0.0 0.0 0.375
0.0 0.125 0.375
0.0 0.25 0.375
0.0 0.375 0.375
0.0 0.5 0.375
0.0 0.625 0.375
0.0 0.75 0.375
0.0 0.875 0.375
0.0 1.0 0.375
0.125 0.0 0.375
0.125 0.125 0.375
0.125 0.25 0.375
0.125 0.375 0.375
0.125 0.5 0.375
0.125 0.625 0.375
0.125 0.75 0.375
0.125 0.875 0.375
0.125 1.0 0.375
0.25 0.0 0.375
0.25 0.125 0.375
0.25 0.25 0.375
0.25 0.375 0.375
0.25 0.5 0.375
0.25 0.625 0.375
0.25 0.75 0.375
0.25 0.875 0.375
0.25 1.0 0.375
0.375 0.0 0.375
0.375 0.125 0.375
0.375 0.25 0.375
0.375 0.375 0.375
0.375 0.5 0.375
0.375 0.625 0.375
0.375 0.75 0.375
0.375 0.875 0.375
0.375 1.0 0.375
0.5 0.0 0.375
0.5 0.125 0.375
0.5 0.25 0.375
0.5 0.375 0.375
0.5 0.5 0.375
0.5 0.625 0.375
0.5 0.75 0.375
0.5 0.875 0.375
0.5 1.0 0.375
0.625 0.0 0.375
0.625 0.125 0.375
0.625 0.25 0.375
0.625 0.375 0.375
0.625 0.5 0.375
0.625 0.625 0.375
0.625 0.75 0.375
0.625 0.875 0.375
0.625 1.0 0.375
0.75 0.0 0.375
0.75 0.125 0.375
0.75 0.25 0.375
0.75 0.375 0.375
0.75 0.5 0.375
0.75 0.625 0.375
0.75 0.75 0.375
0.75 0.875 0.375
0.75 1.0 0.375
0.875 0.0 0.375
0.875 0.125 0.375
0.875 0.25 0.375
0.875 0.375 0.375
0.875 0.5 0.375
0.875 0.625 0.375
0.875 0.75 0.375
0.875 0.875 0.375
0.875 1.0 0.375
1.0 0.0 0.375
1.0 0.125 0.375
1.0 0.25 0.375
1.0 0.375 0.375
1.0 0.5 0.375
1.0 0.625 0.375
1.0 0.75 0.375
1.0 0.875 0.375
1.0 1.0 0.375
0.0 0.0 0.5
0.0 0.125 0.5
0.0 0.25 0.5
0.0 0.375 0.5
0.0 0.5 0.5
0.0 0.625 0.5
0.0 0.75 0.5
0.0 0.875 0.5
0.0 1.0 0.5
0.125 0.0 0.5
0.125 0.125 0.5
0.125 0.25 0.5
0.125 0.375 0.5
0.125 0.5 0.5
0.125 0.625 0.5
0.125 0.75 0.5
0.125 0.875 0.5
0.125 1.0 0.5
0.25 0.0 0.5
0.25 0.125 0.5
0.25 0.25 0.5
0.25 0.375 0.5
0.25 0.5 0.5
0.25 0.625 0.5
0.25 0.75 0.5
0.25 0.875 0.5
0.25 1.0 0.5
0.375 0.0 0.5
0.375 0.125 0.5
0.375 0.25 0.5
0.375 0.375 0.5
0.375 0.5 0.5
0.375 0.625 0.5
0.375 0.75 0.5
0.375 0.875 0.5
0.375 1.0 0.5
0.5 0.0 0.5
0.5 0.125 0.5
0.5 0.25 0.5
0.5 0.375 0.5
0.5 0.5 0.5
0.5 0.625 0.5
0.5 0.75 0.5
0.5 0.875 0.5
0.5 1.0 0.5
0.625 0.0 0.5
0.625 0.125 0.5
0.625 0.25 0.5
0.625 0.375 0.5
0.625 0.5 0.5
0.625 0.625 0.5
0.625 0.75 0.5
0.625 0.875 0.5
0.625 1.0 0.5
0.75 0.0 0.5
0.75 0.125 0.5
0.75 0.25 0.5
0.75 0.375 0.5
0.75 0.5 0.5
0.75 0.625 0.5
0.75 0.75 0.5
0.75 0.875 0.5
0.75 1.0 0.5
0.875 0.0 0.5
0.875 0.125 0.5
0.875 0.25 0.5
0.875 0.375 0.5
0.875 0.5 0.5
0.875 0.625 0.5
0.875 0.75 0.5
0.875 0.875 0.5
0.875 1.0 0.5
1.0 0.0 0.5
1.0 0.125 0.5
1.0 0.25 0.5
1.0 0.375 0.5
1.0 0.5 0.5
1.0 0.625 0.5
1.0 0.75 0.5
1.0 0.875 0.5
1.0 1.0 0.5
0.0 0.0 0.625
0.0 0.125 0.625
0.0 0.25 0.625
0.0 0.375 0.625
0.0 0.5 0.625
0.0 0.625 0.625
0.0 0.75 0.625
0.0 0.875 0.625
0.0 1.0 0.625
0.125 0.0 0.625
0.125 0.125 0.625
0.125 0.25 0.625
0.125 0.375 0.625
0.125 0.5 0.625
0.125 0.625 0.625
0.125 0.75 0.625
0.125 0.875 0.625
0.125 1.0 0.625
0.25 0.0 0.625
0.25 0.125 0.625
0.25 0.25 0.625
0.25 0.375 0.625
0.25 0.5 0.625
0.25 0.625 0.625
0.25 0.75 0.625
0.25 0.875 0.625
0.25 1.0 0.625
0.375 0.0 0.625
0.375 0.125 0.625
0.375 0.25 0.625
0.375 0.375 0.625
0.375 0.5 0.625
0.375 0.625 0.625
0.375 0.75 0.625
0.375 0.875 0.625
0.375 1.0 0.625
0.5 0.0 0.625
0.5 0.125 0.625
0.5 0.25 0.625
0.5 0.375 0.625
0.5 0.5 0.625
0.5 0.625 0.625
0.5 0.75 0.625
0.5 0.875 0.625
0.5 1.0 0.625
0.625 0.0 0.625
0.625 0.125 0.625
0.625 0.25 0.625
0.625 0.375 0.625
0.625 0.5 0.625
0.625 0.625 0.625
0.625 0.75 0.625
0.625 0.875 0.625
0.625 1.0 0.625
0.75 0.0 0.625
0.75 0.125 0.625
0.75 0.25 0.625
0.75 0.375 0.625
0.75 0.5 0.625
0.75 0.625 0.625
0.75 0.75 0.625
0.75 0.875 0.625
0.75 1.0 0.625
0.875 0.0 0.625
0.875 0.125 0.625
0.875 0.25 0.625
0.875 0.375 0.625
0.875 0.5 0.625
0.875 0.625 0.625
0.875 0.75 0.625
0.875 0.875 0.625
0.875 1.0 0.625
1.0 0.0 0.625
1.0 0.125 0.625
1.0 0.25 0.625
1.0 0.375 0.625
1.0 0.5 0.625
1.0 0.625 0.625
1.0 0.75 0.625
1.0 0.875 0.625
1.0 1.0 0.625
0.0 0.0 0.75
0.0 0.125 0.75
0.0 0.25 0.75
0.0 0.375 0.75
0.0 0.5 0.75
0.0 0.625 0.75
0.0 0.75 0.75
0.0 0.875 0.75
0.0 1.0 0.75
0.125 0.0 0.75
0.125 0.125 0.75
0.125 0.25 0.75
0.125 0.375 0.75
0.125 0.5 0.75
0.125 0.625 0.75
0.125 0.75 0.75
0.125 0.875 0.75
0.125 1.0 0.75
0.25 0.0 0.75
0.25 0.125 0.75
0.25 0.25 0.75
0.25 0.375 0.75
0.25 0.5 0.75
0.25 0.625 0.75
0.25 0.75 0.75
0.25 0.875 0.75
0.25 1.0 0.75
0.375 0.0 0.75
0.375 0.125 0.75
0.375 0.25 0.75
0.375 0.375 0.75
0.375 0.5 0.75
0.375 0.625 0.75
0.375 0.75 0.75
0.375 0.875 0.75
0.375 1.0 0.75
0.5 0.0 0.75
0.5 0.125 0.75
0.5 0.25 0.75
0.5 0.375 0.75
0.5 0.5 0.75
0.5 0.625 0.75
0.5 0.75 0.75
0.5 0.875 0.75
0.5 1.0 0.75
0.625 0.0 0.75
0.625 0.125 0.75
0.625 0.25 0.75
0.625 0.375 0.75
0.625 0.5 0.75
0.625 0.625 0.75
0.625 0.75 0.75
0.625 0.875 0.75
0.625 1.0 0.75
0.75 0.0 0.75
0.75 0.125 0.75
0.75 0.25 0.75
0.75 0.375 0.75
0.75 0.5 0.75
0.75 0.625 0.75
0.75 0.75 0.75
0.75 0.875 0.75
0.75 1.0 0.75
0.875 0.0 0.75
0.875 0.125 0.75
0.875 0.25 0.75
0.875 0.375 0.75
0.875 0.5 0.75
0.875 0.625 0.75
0.875 0.75 0.75
0.875 0.875 0.75
0.875 1.0 0.75
1.0 0.0 0.75
1.0 0.125 0.75
1.0 0.25 0.75
1.0 0.375 0.75
1.0 0.5 0.75
1.0 0.625 0.75
1.0 0.75 0.75
1.0 0.875 0.75
1.0 1.0 0.75
0.0 0.0 0.875
0.0 0.125 0.875
0.0 0.25 0.875
0.0 0.375 0.875
0.0 0.5 0.875
0.0 0.625 0.875
0.0 0.75 0.875
0.0 0.875 0.875
0.0 1.0 0.875
0.125 0.0 0.875
0.125 0.125 0.875
0.125 0.25 0.875
0.125 0.375 0.875
0.125 0.5 0.875
0.125 0.625 0.875
0.125 0.75 0.875
0.125 0.875 0.875
0.125 1.0 0.875
0.25 0.0 0.875
0.25 0.125 0.875
0.25 0.25 0.875
0.25 0.375 0.875
0.25 0.5 0.875
0.25 0.625 0.875
0.25 0.75 0.875
0.25 0.875 0.875
0.25 1.0 0.875
0.375 0.0 0.875
0.375 0.125 0.875
0.375 0.25 0.875
0.375 0.375 0.875
0.375 0.5 0.875
0.375 0.625 0.875
0.375 0.75 0.875
0.375 0.875 0.875
0.375 1.0 0.875
0.5 0.0 0.875
0.5 0.125 0.875
0.5 0.25 0.875
0.5 0.375 0.875
0.5 0.5 0.875
0.5 0.625 0.875
0.5 0.75 0.875
0.5 0.875 0.875
0.5 1.0 0.875
0.625 0.0 0.875
0.625 0.125 0.875
0.625 0.25 0.875
0.625 0.375 0.875
0.625 0.5 0.875
0.625 0.625 0.875
0.625 0.75 0.875
0.625 0.875 0.875
0.625 1.0 0.875
0.75 0.0 0.875
0.75 0.125 0.875
0.75 0.25 0.875
0.75 0.375 0.875
0.75 0.5 0.875
0.75 0.625 0.875
0.75 0.75 0.875
0.75 0.875 0.875
0.75 1.0 0.875
0.875 0.0 0.875
0.875 0.125 0.875
0.875 0.25 0.875
0.875 0.375 0.875
0.875 0.5 0.875
0.875 0.625 0.875
0.875 0.75 0.875
0.875 0.875 0.875
0.875 1.0 0.875
[...]
CELL_DATA 512
SCALARS Temperature double
LOOKUP_TABLE default
2.4433411276498402
2.76870435055627
3.137366830388093
3.5551065004795817
4.028459129310742
4.564828266579916
5.172600289426207
5.86125339829536
2.768704350551427
3.1374465499628075
3.555231862501853
4.028617219390828
4.565009039497854
5.172793143547838
5.861463612604814
6.6417299091143
3.137366830384807
3.555231862505902
4.028664092822155
4.565092205622272
5.172908431167154
5.861612988614028
6.641959836408445
7.526084835915195
3.5551065004818314
4.028617219390854
4.565092205621076
5.172948780236732
5.861696184072546
6.6420987920725585
7.526341705215108
8.52817698402831
4.028459129310529
4.565009039502659
5.1729084311764995
5.861696184076195
6.64214833102973
7.526463026620629
8.528447912725078
9.66368533434389
4.564828266576485
5.172793143548386
5.861612988621329
6.642098792075986
7.526463026612773
8.52853023382063
9.663948084140678
10.950372031421544
5.172600289422038
5.861463612594746
6.641959836404059
7.526341705217612
8.528447912716992
9.66394808412617
10.950583026377586
12.40835861522543
5.861253398294992
6.641729909105645
7.5260848359091215
8.528176984032722
9.663685334335902
10.95037203140676
12.40835861522351
14.060390030923454
2.7687043505514852
3.1374465499633524
3.555231862505484
4.028617219389343
4.565009039500261
5.17279314355032
5.861463612600294
6.641729909105584
3.137446549958131
3.555438461422601
4.028950565973845
4.56543248288372
5.173277419418856
5.861977829216891
6.642267743252509
7.526216206962321
3.555231862498717
4.028950565973282
4.5655650537576555
5.173513422702825
5.862305029826803
6.642690109107296
7.5268208962260506
8.528373924866528
4.028617219385808
4.565432482884202
5.173513422703433
5.862420239680662
6.642927304960986
7.527214029850422
8.529048591562109
9.663929566490655
4.565009039501046
5.173277419419126
5.862305029827041
6.642927304961005
7.527355077290057
8.529390920324769
9.664636532011047
10.950651868840469
5.172793143552477
5.861977829216253
6.642690109107304
7.527214029850121
8.529390920324303
9.664867402093574
10.951327045629412
12.408662909704061
5.861463612597849
6.6422677432517085
7.526820896225708
8.529048591560455
9.66463653200944
10.951327045628506
12.40918320002432
14.060747632129708
6.641729909108488
7.526216206956877
8.528373924861382
9.663929566489331
10.950651868829098
12.408662909691888
14.06074763212748
15.932613453632737
3.137366830382045
3.555231862505428
4.028664092822883
4.565092205622493
5.172908431174186
5.86161298862405
6.6419598364098285
7.526084835913938
3.5552318624976342
4.0289505659732185
4.56556505375731
5.173513422702927
5.86230502982728
6.642690109107839
7.526820896226338
8.52837392486872
4.028664092820505
4.56556505375732
5.173711273431749
5.862659181182641
6.643181563331264
7.527450843929513
8.529222199832995
9.663993830835045
4.5650922056189955
5.17351342270354
5.862659181182815
6.643356157194613
7.527809771850377
8.529809905995945
9.664940035761838
10.950763543436631
5.172908431171527
5.86230502982727
6.6431815633313365
7.52780977185029
8.530023055299571
9.665449672311407
10.951748481245994
12.408818009304763
5.861612988620244
6.642690109107326
7.52745084392919
8.529809905995464
9.665449672311127
10.952088651607138
12.40974379465335
14.060955404511187
6.641959836403496
7.526820896225913
8.529222199831619
9.66494003576134
10.951748481245012
12.409743794652975
14.061642184623631
15.932986777317266
7.526084835913505
8.528373924867417
9.663993830840218
10.95076354343227
12.408818009305834
14.060955404511839
15.932986777315369
18.054042794902387
3.555106500482653
4.028617219389135
4.565092205618137
5.172948780238986
5.861696184077884
6.642098792076528
7.526341705223139
8.52817698403506
4.028617219383242
4.5654324828840815
5.173513422703157
5.862420239680476
6.642927304961328
7.527214029851172
8.529048591561555
9.663929566489719
4.565092205622137
5.173513422703313
5.862659181182778
6.643356157194589
7.527809771850428
8.5298099059959
9.664940035762333
10.950763543429918
5.172948780236977
5.862420239681344
6.6433561571948445
7.528022126190544
8.530246566323912
9.665651454033373
10.95189128819973
12.408869924299914
5.861696184074641
6.642927304961535
7.527809771850487
8.530246566323841
9.665910788317916
10.952507243535482
12.41004171025759
14.061064111383267
6.642098792075864
7.527214029850255
8.52980990599563
9.665651454032973
10.952507243535266
12.410450882358047
14.062160292640765
15.933178669846562
7.526341705214227
8.529048591561367
9.664940035761484
10.951891288199345
12.410041710256811
14.06216029264058
15.933984723324535
18.054460216504662
8.52817698403286
9.663929566491984
10.950763543433887
12.408869924294066
14.061064111385797
15.933178669851442
18.054460216504562
20.45791841349834
4.028459129312051
4.565009039497585
5.172908431171985
5.86169618407506
6.642148331030214
7.526463026615325
8.528447912721452
9.663685334335813
4.565009039502741
5.173277419419492
5.862305029826687
6.642927304960922
7.527355077290492
8.529390920325433
9.664636532010585
10.950651868832956
5.17290843117677
5.862305029827244
6.6431815633315034
7.527809771850418
8.530023055299713
9.665449672311475
10.951748481245229
12.408818009308469
5.8616961840708806
6.642927304962074
7.527809771850613
8.530246566323955
9.665910788317994
10.952507243535504
12.410041710257698
14.061064111386695
6.642148331031593
7.5273550772905065
8.53002305529979
9.665910788317936
10.952781801174236
12.410701220710573
14.062339291036176
15.93324419406454
7.526463026619776
8.529390920324602
9.665449672311219
10.952507243535209
12.410701220710326
14.062780661402394
15.934443764903678
18.054631073626844
8.528447912714965
9.66463653201045
10.951748481244964
12.410041710256811
14.06233929103552
15.934443764903927
18.05552035373298
20.458365750348953
9.663685334337234
10.950651868838701
12.408818009307371
14.061064111381414
15.933244194059316
18.054631073621028
20.458365750350033
23.181852159801576
4.564828266578262
5.1727931435493
5.861612988619516
6.642098792072349
7.526463026615912
8.528530233826707
9.663948084131025
10.950372031409888
5.172793143556384
5.86197782921705
6.642690109107155
7.527214029850617
8.529390920325353
9.664867402093414
10.951327045628705
12.408662909698213
5.861612988623063
6.642690109107905
7.527450843929694
8.52980990599583
9.665449672311352
10.952088651607246
12.409743794653124
14.060955404510546
6.6420987920709
7.527214029851262
8.529809905995986
9.66565145403331
10.952507243535472
12.410450882358155
14.062160292640847
15.933178669850506
7.526463026617987
8.529390920325307
9.665449672311402
10.952507243535425
12.410701220710493
14.062780661402474
15.93444376490444
18.054631073623923
8.52853023382939
9.664867402093368
10.952088651607049
12.410450882357887
14.062780661402304
15.93486754236211
18.055840807744467
20.45848624655493
9.663948084130938
10.951327045628577
12.409743794652815
14.062160292640225
15.934443764903353
18.05584080774415
20.459406953820018
23.182300377089035
10.950372031410009
12.408662909702343
14.060955404510002
15.933178669846495
18.054631073623394
20.45848624655249
23.182300377090026
26.268455985654807
5.1726002894309095
5.86146361259918
6.641959836402954
7.5263417052204815
8.528447912727882
9.663948084136589
10.950583026376101
12.408358615225517
5.861463612602467
6.642267743252975
7.5268208962263525
8.529048591561398
9.664636532010434
10.951327045628538
12.409183200023941
14.060747632127535
6.641959836405322
7.526820896226902
8.529222199832397
9.664940035762024
10.95174848124529
12.409743794652847
14.061642184623931
15.932986777312424
7.526341705219789
8.529048591561525
9.664940035762143
10.951891288199942
12.410041710257369
14.062160292640778
15.933984723324654
18.054460216504125
8.528447912724989
9.664636532010498
10.951748481245314
12.410041710257339
14.062339291036151
15.934443764904051
18.055520353732977
20.458365750350595
9.663948084137537
10.951327045628542
12.409743794652774
14.062160292640636
15.934443764903905
18.05584080774439
20.459406953820114
23.18230037708915
10.950583026378194
12.409183200024048
14.061642184623746
15.933984723324194
18.05552035373262
20.459406953819922
23.183142808159204
26.268838420846105
12.40835861522395
14.06074763212732
15.932986777311797
18.054460216503465
20.458365750349795
23.18230037708861
26.268838420845796
29.76600551214956
5.861253398297405
6.641729909105342
7.526084835910062
8.528176984035845
9.663685334341036
10.950372031409461
12.408358615223586
14.06039003092588
6.641729909107093
7.526216206955375
8.528373924865985
9.663929566490772
10.950651868832923
12.408662909697398
14.060747632127015
15.932613453635096
7.52608483591094
8.528373924866115
9.663993830842045
10.950763543433881
12.408818009306362
14.060955404510445
15.9329867773124
18.05404279490859
8.52817698403323
9.663929566490971
10.950763543433904
12.408869924297033
14.061064111385967
15.933178669848424
18.054460216503756
20.457918413504302
9.663685334337725
10.950651868832976
12.408818009306378
14.061064111385956
15.933244194063189
18.05463107362402
20.45836575035021
23.181852159801494
10.950372031408548
12.408662909697457
14.06095540451042
15.933178669848374
18.054631073623984
20.458486246553022
23.18230037708883
26.268455985652523
12.408358615223792
14.060747632127136
15.932986777312404
18.054460216503646
20.45836575035011
23.182300377088765
26.268838420845846
29.766005512149427
14.060390030926083
15.93261345363437
18.05404279490759
20.45791841350399
23.18185215980121
26.268455985652395
29.76600551214934
33.729080837374816
