# vtk DataFile Version 3.0
Generated by easyPDE
ASCII
DATASET UNSTRUCTURED_GRID
POINTS 729 double
0.0 0.0 0.0
0.0 0.125 0.0
0.0 0.25 0.0
0.0 0.375 0.0
0.0 0.5 0.0
0.0 0.625 0.0
0.0 0.75 0.0
0.0 0.875 0.0
0.0 1.0 0.0
0.125 0.0 0.0
0.125 0.125 0.0
0.125 0.25 0.0
0.125 0.375 0.0
0.125 0.5 0.0
0.125 0.625 0.0
0.125 0.75 0.0
0.125 0.875 0.0
0.125 1.0 0.0
0.25 0.0 0.0
0.25 0.125 0.0
0.25 0.25 0.0
0.25 0.375 0.0
0.25 0.5 0.0
0.25 0.625 0.0
0.25 0.75 0.0
0.25 0.875 0.0
0.25 1.0 0.0
0.375 0.0 0.0
0.375 0.125 0.0
0.375 0.25 0.0
0.375 0.375 0.0
0.375 0.5 0.0
0.375 0.625 0.0
0.375 0.75 0.0
0.375 0.875 0.0
0.375 1.0 0.0
0.5 0.0 0.0
0.5 0.125 0.0
0.5 0.25 0.0
0.5 0.375 0.0
0.5 0.5 0.0
0.5 0.625 0.0
0.5 0.75 0.0
0.5 0.875 0.0
0.5 1.0 0.0
0.625 0.0 0.0
0.625 0.125 0.0
0.625 0.25 0.0
0.625 0.375 0.0
0.625 0.5 0.0
0.625 0.625 0.0
0.625 0.75 0.0
0.625 0.875 0.0
0.625 1.0 0.0
0.75 0.0 0.0
0.75 0.125 0.0
0.75 0.25 0.0
0.75 0.375 0.0
0.75 0.5 0.0
0.75 0.625 0.0
0.75 0.75 0.0
0.75 0.875 0.0
0.75 1.0 0.0
0.875 0.0 0.0
0.875 0.125 0.0
0.875 0.25 0.0
0.875 0.375 0.0
0.875 0.5 0.0
0.875 0.625 0.0
0.875 0.75 0.0
0.875 0.875 0.0
0.875 1.0 0.0
1.0 0.0 0.0
1.0 0.125 0.0
1.0 0.25 0.0
1.0 0.375 0.0
1.0 0.5 0.0
1.0 0.625 0.0
1.0 0.75 0.0
1.0 0.875 0.0
1.0 1.0 0.0
0.0 0.0 0.125
0.0 0.125 0.125
0.0 0.25 0.125
0.0 0.375 0.125
0.0 0.5 0.125
0.0 0.625 0.125
0.0 0.75 0.125
0.0 0.875 0.125
0.0 1.0 0.125
0.125 0.0 0.125
0.125 0.125 0.125
0.125 0.25 0.125
0.125 0.375 0.125
0.125 0.5 0.125
0.125 0.625 0.125
0.125 0.75 0.125
0.125 0.875 0.125
0.125 1.0 0.125
0.25 0.0 0.125
0.25 0.125 0.125
0.25 0.25 0.125
0.25 0.375 0.125
0.25 0.5 0.125
0.25 0.625 0.125
0.25 0.75 0.125
0.25 0.875 0.125
0.25 1.0 0.125
0.375 0.0 0.125
0.375 0.125 0.125
0.375 0.25 0.125
0.375 0.375 0.125
0.375 0.5 0.125
0.375 0.625 0.125
0.375 0.75 0.125
0.375 0.875 0.125
0.375 1.0 0.125
0.5 0.0 0.125
0.5 0.125 0.125
0.5 0.25 0.125
0.5 0.375 0.125
0.5 0.5 0.125
0.5 0.625 0.125
0.5 0.75 0.125
0.5 0.875 0.125
0.5 1.0 0.125
0.625 0.0 0.125
0.625 0.125 0.125
0.625 0.25 0.125
0.625 0.375 0.125
0.625 0.5 0.125
0.625 0.625 0.125
0.625 0.75 0.125
0.625 0.875 0.125
0.625 1.0 0.125
0.75 0.0 0.125
0.75 0.125 0.125
0.75 0.25 0.125
0.75 0.375 0.125
0.75 0.5 0.125
0.75 0.625 0.125
0.75 0.75 0.125
0.75 0.875 0.125
0.75 1.0 0.125
0.875 0.0 0.125
0.875 0.125 0.125
0.875 0.25 0.125
0.875 0.375 0.125
0.875 0.5 0.125
0.875 0.625 0.125
0.875 0.75 0.125
0.875 0.875 0.125
0.875 1.0 0.125
1.0 0.0 0.125
1.0 0.125 0.125
1.0 0.25 0.125
1.0 0.375 0.125
1.0 0.5 0.125
1.0 0.625 0.125
1.0 0.75 0.125
1.0 0.875 0.125
1.0 1.0 0.125
0.0 0.0 0.25
0.0 0.125 0.25
0.0 0.25 0.25
0.0 0.375 0.25
0.0 0.5 0.25
0.0 0.625 0.25
0.0 0.75 0.25
0.0 0.875 0.25
0.0 1.0 0.25
0.125 0.0 0.25
0.125 0.125 0.25
0.125 0.25 0.25
0.125 0.375 0.25
0.125 0.5 0.25
0.125 0.625 0.25
0.125 0.75 0.25
0.125 0.875 0.25
0.125 1.0 0.25
0.25 0.0 0.25
0.25 0.125 0.25
0.25 0.25 0.25
0.25 0.375 0.25
0.25 0.5 0.25
0.25 0.625 0.25
0.25 0.75 0.25
0.25 0.875 0.25
0.25 1.0 0.25
0.375 0.0 0.25
0.375 0.125 0.25
0.375 0.25 0.25
0.375 0.375 0.25
0.375 0.5 0.25
0.375 0.625 0.25
0.375 0.75 0.25
0.375 0.875 0.25
0.375 1.0 0.25
0.5 0.0 0.25
0.5 0.125 0.25
0.5 0.25 0.25
0.5 0.375 0.25
0.5 0.5 0.25
0.5 0.625 0.25
0.5 0.75 0.25
0.5 0.875 0.25
0.5 1.0 0.25
0.625 0.0 0.25
0.625 0.125 0.25
0.625 0.25 0.25
0.625 0.375 0.25
0.625 0.5 0.25
0.625 0.625 0.25
0.625 0.75 0.25
0.625 0.875 0.25
0.625 1.0 0.25
0.75 0.0 0.25
0.75 0.125 0.25
0.75 0.25 0.25
0.75 0.375 0.25
0.75 0.5 0.25
0.75 0.625 0.25
0.75 0.75 0.25
0.75 0.875 0.25
0.75 1.0 0.25
0.875 0.0 0.25
0.875 0.125 0.25
0.875 0.25 0.25
0.875 0.375 0.25
0.875 0.5 0.25
0.875 0.625 0.25
0.875 0.75 0.25
0.875 0.875 0.25
0.875 1.0 0.25
1.0 0.0 0.25
1.0 0.125 0.25
1.0 0.25 0.25
1.0 0.375 0.25
1.0 0.5 0.25
1.0 0.625 0.25
1.0 0.75 0.25
1.0 0.875 0.25
1.0 1.0 0.25
0.0 0.0 0.375
0.0 0.125 0.375
0.0 0.25 0.375
0.0 0.375 0.375
0.0 0.5 0.375
0.0 0.625 0.375
0.0 0.75 0.375
0.0 0.875 0.375
0.0 1.0 0.375
0.125 0.0 0.375
0.125 0.125 0.375
0.125 0.25 0.375
0.125 0.375 0.375
0.125 0.5 0.375
0.125 0.625 0.375
0.125 0.75 0.375
0.125 0.875 0.375
0.125 1.0 0.375
0.25 0.0 0.375
0.25 0.125 0.375
0.25 0.25 0.375
0.25 0.375 0.375
0.25 0.5 0.375
0.25 0.625 0.375
0.25 0.75 0.375
0.25 0.875 0.375
0.25 1.0 0.375
0.375 0.0 0.375
0.375 0.125 0.375
0.375 0.25 0.375
0.375 0.375 0.375
0.375 0.5 0.375
0.375 0.625 0.375
0.375 0.75 0.375
0.375 0.875 0.375
0.375 1.0 0.375
0.5 0.0 0.375
0.5 0.125 0.375
0.5 0.25 0.375
0.5 0.375 0.375
0.5 0.5 0.375
0.5 0.625 0.375
0.5 0.75 0.375
0.5 0.875 0.375
0.5 1.0 0.375
0.625 0.0 0.375
0.625 0.125 0.375
0.625 0.25 0.375
0.625 0.375 0.375
0.625 0.5 0.375
0.625 0.625 0.375
0.625 0.75 0.375
0.625 0.875 0.375
0.625 1.0 0.375
0.75 0.0 0.375
0.75 0.125 0.375
0.75 0.25 0.375
0.75 0.375 0.375
0.75 0.5 0.375
0.75 0.625 0.375
0.75 0.75 0.375
0.75 0.875 0.375
0.75 1.0 0.375
0.875 0.0 0.375
0.875 0.125 0.375
0.875 0.25 0.375
0.875 0.375 0.375
0.875 0.5 0.375
0.875 0.625 0.375
0.875 0.75 0.375
0.875 0.875 0.375
0.875 1.0 0.375
1.0 0.0 0.375
1.0 0.125 0.375
1.0 0.25 0.375
1.0 0.375 0.375
1.0 0.5 0.375
1.0 0.625 0.375
1.0 0.75 0.375
1.0 0.875 0.375
1.0 1.0 0.375
0.0 0.0 0.5
0.0 0.125 0.5
0.0 0.25 0.5
0.0 0.375 0.5
0.0 0.5 0.5
0.0 0.625 0.5
0.0 0.75 0.5
0.0 0.875 0.5
0.0 1.0 0.5
0.125 0.0 0.5
0.125 0.125 0.5
0.125 0.25 0.5
0.125 0.375 0.5
0.125 0.5 0.5
0.125 0.625 0.5
0.125 0.75 0.5
0.125 0.875 0.5
0.125 1.0 0.5
0.25 0.0 0.5
0.25 0.125 0.5
0.25 0.25 0.5
0.25 0.375 0.5
0.25 0.5 0.5
0.25 0.625 0.5
0.25 0.75 0.5
0.25 0.875 0.5
0.25 1.0 0.5
0.375 0.0 0.5
0.375 0.125 0.5
0.375 0.25 0.5
0.375 0.375 0.5
0.375 0.5 0.5
0.375 0.625 0.5
0.375 0.75 0.5
0.375 0.875 0.5
0.375 1.0 0.5
0.5 0.0 0.5
0.5 0.125 0.5
0.5 0.25 0.5
0.5 0.375 0.5
0.5 0.5 0.5
0.5 0.625 0.5
0.5 0.75 0.5
0.5 0.875 0.5
0.5 1.0 0.5
0.625 0.0 0.5
0.625 0.125 0.5
0.625 0.25 0.5
0.625 0.375 0.5
0.625 0.5 0.5
0.625 0.625 0.5
0.625 0.75 0.5
0.625 0.875 0.5
0.625 1.0 0.5
0.75 0.0 0.5
0.75 0.125 0.5
0.75 0.25 0.5
0.75 0.375 0.5
0.75 0.5 0.5
0.75 0.625 0.5
0.75 0.75 0.5
0.75 0.875 0.5
0.75 1.0 0.5
0.875 0.0 0.5
0.875 0.125 0.5
0.875 0.25 0.5
0.875 0.375 0.5
0.875 0.5 0.5
0.875 0.625 0.5
0.875 0.75 0.5
0.875 0.875 0.5
0.875 1.0 0.5
1.0 0.0 0.5
1.0 0.125 0.5
1.0 0.25 0.5
1.0 0.375 0.5
1.0 0.5 0.5
1.0 0.625 0.5
1.0 0.75 0.5
1.0 0.875 0.5
1.0 1.0 0.5
0.0 0.0 0.625
0.0 0.125 0.625
0.0 0.25 0.625
0.0 0.375 0.625
0.0 0.5 0.625
0.0 0.625 0.625
0.0 0.75 0.625
0.0 0.875 0.625
0.0 1.0 0.625
0.125 0.0 0.625
0.125 0.125 0.625
0.125 0.25 0.625
0.125 0.375 0.625
0.125 0.5 0.625
0.125 0.625 0.625
0.125 0.75 0.625
0.125 0.875 0.625
0.125 1.0 0.625
0.25 0.0 0.625
0.25 0.125 0.625
0.25 0.25 0.625
0.25 0.375 0.625
0.25 0.5 0.625
0.25 0.625 0.625
0.25 0.75 0.625
0.25 0.875 0.625
0.25 1.0 0.625
0.375 0.0 0.625
0.375 0.125 0.625
0.375 0.25 0.625
0.375 0.375 0.625
0.375 0.5 0.625
0.375 0.625 0.625
0.375 0.75 0.625
0.375 0.875 0.625
0.375 1.0 0.625
0.5 0.0 0.625
0.5 0.125 0.625
0.5 0.25 0.625
0.5 0.375 0.625
0.5 0.5 0.625
0.5 0.625 0.625
0.5 0.75 0.625
0.5 0.875 0.625
0.5 1.0 0.625
0.625 0.0 0.625
0.625 0.125 0.625
0.625 0.25 0.625
0.625 0.375 0.625
0.625 0.5 0.625
0.625 0.625 0.625
0.625 0.75 0.625
0.625 0.875 0.625
0.625 1.0 0.625
0.75 0.0 0.625
0.75 0.125 0.625
0.75 0.25 0.625
0.75 0.375 0.625
0.75 0.5 0.625
0.75 0.625 0.625
0.75 0.75 0.625
0.75 0.875 0.625
0.75 1.0 0.625
0.875 0.0 0.625
0.875 0.125 0.625
0.875 0.25 0.625
0.875 0.375 0.625
0.875 0.5 0.625
0.875 0.625 0.625
0.875 0.75 0.625
0.875 0.875 0.625
0.875 1.0 0.625
1.0 0.0 0.625
1.0 0.125 0.625
1.0 0.25 0.625
1.0 0.375 0.625
1.0 0.5 0.625
1.0 0.625 0.625
1.0 0.75 0.625
1.0 0.875 0.625
1.0 1.0 0.625
0.0 0.0 0.75
0.0 0.125 0.75
0.0 0.25 0.75
0.0 0.375 0.75
0.0 0.5 0.75
0.0 0.625 0.75
0.0 0.75 0.75
0.0 0.875 0.75
0.0 1.0 0.75
0.125 0.0 0.75
0.125 0.125 0.75
0.125 0.25 0.75
0.125 0.375 0.75
0.125 0.5 0.75
0.125 0.625 0.75
0.125 0.75 0.75
0.125 0.875 0.75
0.125 1.0 0.75
0.25 0.0 0.75
0.25 0.125 0.75
0.25 0.25 0.75
0.25 0.375 0.75
0.25 0.5 0.75
0.25 0.625 0.75
0.25 0.75 0.75
0.25 0.875 0.75
0.25 1.0 0.75
0.375 0.0 0.75
0.375 0.125 0.75
0.375 0.25 0.75
0.375 0.375 0.75
0.375 0.5 0.75
0.375 0.625 0.75
0.375 0.75 0.75
0.375 0.875 0.75
0.375 1.0 0.75
0.5 0.0 0.75
0.5 0.125 0.75
0.5 0.25 0.75
0.5 0.375 0.75
0.5 0.5 0.75
0.5 0.625 0.75
0.5 0.75 0.75
0.5 0.875 0.75
0.5 1.0 0.75
0.625 0.0 0.75
0.625 0.125 0.75
0.625 0.25 0.75
0.625 0.375 0.75
0.625 0.5 0.75
0.625 0.625 0.75
0.625 0.75 0.75
0.625 0.875 0.75
0.625 1.0 0.75
0.75 0.0 0.75
0.75 0.125 0.75
0.75 0.25 0.75
0.75 0.375 0.75
0.75 0.5 0.75
0.75 0.625 0.75
0.75 0.75 0.75
0.75 0.875 0.75
0.75 1.0 0.75
0.875 0.0 0.75
0.875 0.125 0.75
0.875 0.25 0.75
0.875 0.375 0.75
0.875 0.5 0.75
0.875 0.625 0.75
0.875 0.75 0.75
0.875 0.875 0.75
0.875 1.0 0.75
1.0 0.0 0.75
1.0 0.125 0.75
1.0 0.25 0.75
1.0 0.375 0.75
1.0 0.5 0.75
1.0 0.625 0.75
1.0 0.75 0.75
1.0 0.875 0.75
1.0 1.0 0.75
0.0 0.0 0.875
0.0 0.125 0.875
0.0 0.25 0.875
0.0 0.375 0.875
0.0 0.5 0.875
0.0 0.625 0.875
0.0 0.75 0.875
0.0 0.875 0.875
0.0 1.0 0.875
0.125 0.0 0.875
0.125 0.125 0.875
0.125 0.25 0.875
0.125 0.375 0.875
0.125 0.5 0.875
0.125 0.625 0.875
0.125 0.75 0.875
0.125 0.875 0.875
0.125 1.0 0.875
0.25 0.0 0.875
0.25 0.125 0.875
0.25 0.25 0.875
0.25 0.375 0.875
0.25 0.5 0.875
0.25 0.625 0.875
0.25 0.75 0.875
0.25 0.875 0.875
0.25 1.0 0.875
0.375 0.0 0.875
0.375 0.125 0.875
0.375 0.25 0.875
0.375 0.375 0.875
0.375 0.5 0.875
0.375 0.625 0.875
0.375 0.75 0.875
0.375 0.875 0.875
0.375 1.0 0.875
0.5 0.0 0.875
0.5 0.125 0.875
0.5 0.25 0.875
0.5 0.375 0.875
0.5 0.5 0.875
0.5 0.625 0.875
0.5 0.75 0.875
0.5 0.875 0.875
0.5 1.0 0.875
0.625 0.0 0.875
0.625 0.125 0.875
0.625 0.25 0.875
0.625 0.375 0.875
0.625 0.5 0.875
0.625 0.625 0.875
0.625 0.75 0.875
0.625 0.875 0.875
0.625 1.0 0.875
0.75 0.0 0.875
0.75 0.125 0.875
0.75 0.25 0.875
0.75 0.375 0.875
0.75 0.5 0.875
0.75 0.625 0.875
0.75 0.75 0.875
0.75 0.875 0.875
0.75 1.0 0.875
0.875 0.0 0.875
0.875 0.125 0.875
0.875 0.25 0.875
0.875 0.375 0.875
0.875 0.5 0.875
0.875 0.625 0.875
0.875 0.75 0.875
0.875 0.875 0.875
0.875 1.0 0.875
[...]
CELL_DATA 512
SCALARS Temperature double
LOOKUP_TABLE default
2.00043937244163
2.266825100183593
2.5686603929163216
2.9106767465526486
3.2982253235711245
3.7373677873502382
4.234970234336628
4.798790266494964
2.2668251001784667
2.5687272753871677
2.910780699746762
3.298355732272464
3.7375165776348753
4.2351293808127135
4.7989670271177935
5.437792294324694
2.5686603929125944
2.9107806997497203
3.298393527189271
3.737583248315415
4.235221299384539
4.7990864165145215
5.437983013112305
6.161840940844932
2.9106767465557453
3.298355732273336
3.7375832483178253
4.235253395601912
4.799152209301896
5.438093567642508
6.162053670209619
6.982284804682015
3.298225323571317
3.7375165776381074
4.235221299391469
4.7991522093054275
5.43813258514776
6.162150256702168
6.982509777967623
7.91196099591265
3.737367787348389
4.235129380811756
4.799086416514036
5.438093567639959
6.162150256699618
6.9825758596512
7.912181155243385
8.965412165225214
4.234970234336324
4.798967027113417
5.437983013106948
6.162053670207153
6.982509777965169
7.912181155240146
8.965592190287474
10.159112200082557
4.798790266496692
5.437792294321229
6.161840940843307
6.98228480468539
7.911960995906899
8.965412165218519
10.159112200081566
11.511677813199373
2.266825100179654
2.5687272753859736
2.9107806997506387
3.298355732273115
3.7375165776364128
4.235129380813336
4.798967027114877
5.437792294322138
2.5687272753811903
2.9109528526084762
3.2986305595389225
3.737863977179118
4.2355257796587695
4.799388887929478
5.438241144688524
6.161952114385735
2.9107806997445804
3.2986305595380916
3.737970790815085
4.235714912757431
4.799649723984051
5.43857848846249
6.162450343159259
6.982449222761134
3.298355732270802
3.7378639771792432
4.2357149127577145
4.799741416103752
5.43876617354975
6.162762952375914
6.983004121996314
7.912163648390392
3.7375165776386123
4.235525779658818
4.799649723983991
5.438766173549528
6.162874103919281
6.983276416109183
7.912746477302382
8.965643871050315
4.235129380814637
4.7993888879287105
5.438578488462132
6.162762952375498
6.983276416108666
7.912931475122721
8.96620530204372
10.159365108952262
4.798967027112694
5.438241144687823
6.162450343158591
6.983004121995082
7.912746477301177
8.96620530204268
10.159805521396493
11.51198147434773
5.437792294323732
6.161952114379436
6.982449222759123
7.912163648388857
8.96564387104231
10.159365108944845
11.511981474344687
13.044529040295334
2.5686603929119722
2.9107806997464696
3.2983935271897993
3.737583248317455
4.235221299388574
4.79908641652248
5.437983013111065
6.161840940845776
2.910780699744355
3.2986305595380276
3.7379707908147948
4.235714912757781
4.799649723985061
5.438578488463094
6.162450343159604
6.98244922276576
3.2983935271854623
3.737970790814141
4.235874073973702
4.79993326554083
5.438969967312684
6.162952674811207
6.983143298911204
7.912215189685611
3.73758324831111
4.235714912757391
4.799933265540673
5.439108944677701
6.163236744394635
6.983610010932373
7.912987920507205
8.965732667911974
4.23522129938877
4.799649723984021
5.438969967312405
6.163236744394487
6.983778016042923
7.913392563112897
8.966538576496928
10.159487664695106
4.799086416516321
5.438578488462175
6.1629526748107315
6.983610010931946
7.913392563112676
8.966810325170066
10.160251204096634
11.512146708069816
5.437983013104894
6.162450343159019
6.983143298910371
7.912987920506895
8.966538576495848
10.160251204095976
11.512722924575312
13.04484139487563
6.16184094084632
6.982449222764594
7.912215189691698
8.965732667908759
10.159487664694474
11.512146708067652
13.044841394871904
14.781408912159563
2.9106767465567
3.2983557322703776
3.737583248313489
4.235253395604227
4.799152209307444
5.438093567646752
6.162053670214709
6.982284804686273
3.298355732269681
3.7378639771788826
4.235714912757661
4.7997414161041645
5.438766173550956
6.162762952377289
6.983004121996613
7.912163648387704
3.7375832483129616
4.235714912757175
4.799933265540728
5.439108944677927
6.163236744394988
6.983610010932632
7.9129879205076765
8.965732667908089
4.235253395598241
4.799741416103617
5.439108944677761
6.163405569770574
6.983955180231405
7.913551841633515
8.966650851361416
10.159528381312484
4.799152209304237
5.4387661735498245
6.1632367443946094
6.983955180231258
7.913756001900644
8.967138916765832
10.160484139612581
11.51223149876018
5.438093567642384
6.162762952375829
6.983610010932146
7.913551841633219
8.967138916765663
10.160810177725361
11.513132534993387
13.04499310813823
6.162053670206051
6.983004121996082
7.912987920507432
8.966650851361093
10.160484139611972
11.513132534993053
13.045667115201343
14.781757657978481
6.982284804684842
7.912163648392223
8.9657326679121
10.159528381309396
11.51223149875943
13.044993108138545
14.78175765797822
16.749536495832047
3.298225323571248
3.7375165776356014
4.2352212993888845
4.799152209305005
5.438132585150952
6.162150256701181
6.982509777967927
7.911960995907382
3.7375165776382095
4.235525779658901
4.799649723984113
5.438766173550432
6.162874103920548
6.983276416110484
7.91274647730261
8.965643871043287
4.235221299391213
4.799649723983918
5.4389699673126515
6.163236744394897
6.983778016043456
7.913392563113342
8.966538576496406
10.15948766470072
4.799152209300686
5.43876617355015
6.163236744394736
6.98395518023143
7.913756001900831
8.967138916765972
10.16048413961294
11.512231498761807
5.43813258515002
6.162874103919642
6.983778016043117
7.913756001900703
8.967354454303782
10.161005946515672
11.5132719856625
13.045044038362352
6.162150256704156
6.983276416109122
7.913392563112915
8.96713891676573
10.161005946515521
11.513623448263116
13.04603081591257
14.781893121906915
6.982509777963326
7.9127464773022815
8.966538576496419
10.160484139612347
11.513271985661866
13.04603081591259
14.78263757437464
16.749911486010912
7.911960995906819
8.965643871048837
10.159487664699558
11.512231498757979
13.045044038358775
14.781893121901147
16.749911486011477
18.97970622515024
3.737367787347864
4.23512938081296
4.7990864165173885
5.438093567641753
6.162150256701939
6.982575859654473
7.912181155239866
8.96541216521969
4.235129380816403
4.799388887929165
5.438578488462447
6.162762952376643
6.983276416110218
7.9129314751231945
8.966205302043276
10.159365108947302
4.799086416519289
5.438578488462439
6.162952674811163
6.983610010932519
7.913392563113254
8.966810325170492
10.160251204096586
11.512146708069873
5.438093567639164
6.162762952376531
6.983610010932411
7.913551841633556
8.967138916766004
10.160810177725644
11.513132534993733
13.044993108139574
6.162150256702133
6.983276416109704
7.91339256311304
8.967138916765913
10.16100594651569
11.513623448263255
13.046030815913285
14.781893121903117
6.982575859656397
7.9129314751228375
8.966810325170185
10.16081017772542
11.513623448263129
13.046369104689603
14.782894389743161
16.750008269634545
7.912181155239976
8.966205302043107
10.160251204096351
11.51313253499325
13.046030815912404
14.782894389742852
16.750784189041603
18.980085669396793
8.965412165219595
10.159365108951324
11.512146708069135
13.044993108136076
14.781893121902382
16.750008269630996
18.980085669396793
21.506806192357544
4.234970234339213
4.798967027114319
5.437983013108343
6.162053670212118
6.982509777971622
7.912181155244751
8.965592190287145
10.159112200081918
4.798967027115647
5.438241144688118
6.162450343159285
6.983004121996349
7.912746477302514
8.96620530204319
10.15980552139624
11.51198147434376
5.437983013107682
6.162450343159319
6.983143298910804
7.9129879205077565
8.96653857649667
10.160251204096433
11.512722924575648
13.044841394870932
6.162053670211038
6.983004121996117
7.912987920507718
8.966650851361731
10.160484139612738
11.513132534993595
13.045667115201491
14.78175765797883
6.982509777970365
7.912746477302341
8.96653857649657
10.160484139612688
11.513271985662541
13.04603081591291
14.782637574374617
16.749911486013044
7.912181155244623
8.966205302043132
10.160251204096287
11.513132534993465
13.046030815912786
14.782894389743003
16.750784189041763
18.980085669396715
8.965592190287925
10.159805521396258
11.51272292457549
13.04566711520104
14.782637574374265
16.750784189041482
18.980804904802653
21.507135782888575
10.159112200081058
11.511981474344342
13.044841394870165
14.781757657978375
16.749911486012284
18.980085669396225
21.507135782888312
24.37036060741214
4.798790266496288
5.43779229431928
6.16184094084253
6.982284804686421
7.911960995909849
8.965412165220384
10.15911220008137
11.511677813199995
5.4377922943200785
6.1619521143783835
6.982449222761877
7.912163648390083
8.965643871045216
10.159365108947881
11.511981474344115
13.0445290402978
6.161840940841737
6.9824492227618435
7.912215189692863
8.965732667911364
10.15948766469776
11.512146708068954
13.044841394870684
14.781408912163325
6.982284804685652
7.912163648390015
8.965732667911348
10.159528381312231
11.512231498761484
13.044993108138264
14.781757657978691
16.749536495834246
7.911960995909393
8.965643871045113
10.159487664697743
11.512231498761473
13.045044038359901
14.78189312190279
16.74991148601265
18.979706225149254
8.965412165219682
10.159365108947892
11.512146708068911
13.044993108138215
14.781893121902755
16.75000826963211
18.98008566939642
21.506806192355626
10.159112200081154
11.511981474344186
13.044841394870645
14.781757657978584
16.74991148601255
18.980085669396356
21.507135782888334
24.370360607412017
11.511677813199992
13.044529040297153
14.781408912162632
16.74953649583397
18.979706225148977
21.506806192355512
24.370360607411943
27.615044738079483
