# vtk DataFile Version 3.0
Generated by easyPDE
ASCII
DATASET UNSTRUCTURED_GRID
POINTS 729 double
0.0 0.0 0.0
0.0 0.125 0.0
0.0 0.25 0.0
0.0 0.375 0.0
0.0 0.5 0.0
0.0 0.625 0.0
0.0 0.75 0.0
0.0 0.875 0.0
0.0 1.0 0.0
0.125 0.0 0.0
0.125 0.125 0.0
0.125 0.25 0.0
0.125 0.375 0.0
0.125 0.5 0.0
0.125 0.625 0.0
0.125 0.75 0.0
0.125 0.875 0.0
0.125 1.0 0.0
0.25 0.0 0.0
0.25 0.125 0.0
0.25 0.25 0.0
0.25 0.375 0.0
0.25 0.5 0.0
0.25 0.625 0.0
0.25 0.75 0.0
0.25 0.875 0.0
0.25 1.0 0.0
0.375 0.0 0.0
0.375 0.125 0.0
0.375 0.25 0.0
0.375 0.375 0.0
0.375 0.5 0.0
0.375 0.625 0.0
0.375 0.75 0.0
0.375 0.875 0.0
0.375 1.0 0.0
0.5 0.0 0.0
0.5 0.125 0.0
0.5 0.25 0.0
0.5 0.375 0.0
0.5 0.5 0.0
0.5 0.625 0.0
0.5 0.75 0.0
0.5 0.875 0.0
0.5 1.0 0.0
0.625 0.0 0.0
0.625 0.125 0.0
0.625 0.25 0.0
0.625 0.375 0.0
0.625 0.5 0.0
0.625 0.625 0.0
0.625 0.75 0.0
0.625 0.875 0.0
0.625 1.0 0.0
0.75 0.0 0.0
0.75 0.125 0.0
0.75 0.25 0.0
0.75 0.375 0.0
0.75 0.5 0.0
0.75 0.625 0.0
0.75 0.75 0.0
0.75 0.875 0.0
0.75 1.0 0.0
0.875 0.0 0.0
0.875 0.125 0.0
0.875 0.25 0.0
0.875 0.375 0.0
0.875 0.5 0.0
0.875 0.625 0.0
0.875 0.75 0.0
0.875 0.875 0.0
0.875 1.0 0.0
1.0 0.0 0.0
1.0 0.125 0.0
1.0 0.25 0.0
1.0 0.375 0.0
1.0 0.5 0.0
1.0 0.625 0.0
1.0 0.75 0.0
1.0 0.875 0.0
1.0 1.0 0.0
0.0 0.0 0.125
0.0 0.125 0.125
0.0 0.25 0.125
0.0 0.375 0.125
0.0 0.5 0.125
0.0 0.625 0.125
0.0 0.75 0.125
0.0 0.875 0.125
0.0 1.0 0.125
0.125 0.0 0.125
0.125 0.125 0.125
0.125 0.25 0.125
0.125 0.375 0.125
0.125 0.5 0.125
0.125 0.625 0.125
0.125 0.75 0.125
0.125 0.875 0.125
0.125 1.0 0.125
0.25 0.0 0.125
0.25 0.125 0.125
0.25 0.25 0.125
0.25 0.375 0.125
0.25 0.5 0.125
0.25 0.625 0.125
0.25 0.75 0.125
0.25 0.875 0.125
0.25 1.0 0.125
0.375 0.0 0.125
0.375 0.125 0.125
0.375 0.25 0.125
0.375 0.375 0.125
0.375 0.5 0.125
0.375 0.625 0.125
0.375 0.75 0.125
0.375 0.875 0.125
0.375 1.0 0.125
0.5 0.0 0.125
0.5 0.125 0.125
0.5 0.25 0.125
0.5 0.375 0.125
0.5 0.5 0.125
0.5 0.625 0.125
0.5 0.75 0.125
0.5 0.875 0.125
0.5 1.0 0.125
0.625 0.0 0.125
0.625 0.125 0.125
0.625 0.25 0.125
0.625 0.375 0.125
0.625 0.5 0.125
0.625 0.625 0.125
0.625 0.75 0.125
0.625 0.875 0.125
0.625 1.0 0.125
0.75 0.0 0.125
0.75 0.125 0.125
0.75 0.25 0.125
0.75 0.375 0.125
0.75 0.5 0.125
0.75 0.625 0.125
0.75 0.75 0.125
0.75 0.875 0.125
0.75 1.0 0.125
0.875 0.0 0.125
0.875 0.125 0.125
0.875 0.25 0.125
0.875 0.375 0.125
0.875 0.5 0.125
0.875 0.625 0.125
0.875 0.75 0.125
0.875 0.875 0.125
0.875 1.0 0.125
1.0 0.0 0.125
1.0 0.125 0.125
1.0 0.25 0.125
1.0 0.375 0.125
1.0 0.5 0.125
1.0 0.625 0.125
1.0 0.75 0.125
1.0 0.875 0.125
1.0 1.0 0.125
0.0 0.0 0.25
0.0 0.125 0.25
0.0 0.25 0.25
0.0 0.375 0.25
0.0 0.5 0.25
0.0 0.625 0.25
0.0 0.75 0.25
0.0 0.875 0.25
0.0 1.0 0.25
0.125 0.0 0.25
0.125 0.125 0.25
0.125 0.25 0.25
0.125 0.375 0.25
0.125 0.5 0.25
0.125 0.625 0.25
0.125 0.75 0.25
0.125 0.875 0.25
0.125 1.0 0.25
0.25 0.0 0.25
0.25 0.125 0.25
0.25 0.25 0.25
0.25 0.375 0.25
0.25 0.5 0.25
0.25 0.625 0.25
0.25 0.75 0.25
0.25 0.875 0.25
0.25 1.0 0.25
0.375 0.0 0.25
0.375 0.125 0.25
0.375 0.25 0.25
0.375 0.375 0.25
0.375 0.5 0.25
0.375 0.625 0.25
0.375 0.75 0.25
0.375 0.875 0.25
0.375 1.0 0.25
0.5 0.0 0.25
0.5 0.125 0.25
0.5 0.25 0.25
0.5 0.375 0.25
0.5 0.5 0.25
0.5 0.625 0.25
0.5 0.75 0.25
0.5 0.875 0.25
0.5 1.0 0.25
0.625 0.0 0.25
0.625 0.125 0.25
0.625 0.25 0.25
0.625 0.375 0.25
0.625 0.5 0.25
0.625 0.625 0.25
0.625 0.75 0.25
0.625 0.875 0.25
0.625 1.0 0.25
0.75 0.0 0.25
0.75 0.125 0.25
0.75 0.25 0.25
0.75 0.375 0.25
0.75 0.5 0.25
0.75 0.625 0.25
0.75 0.75 0.25
0.75 0.875 0.25
0.75 1.0 0.25
0.875 0.0 0.25
0.875 0.125 0.25
0.875 0.25 0.25
0.875 0.375 0.25
0.875 0.5 0.25
0.875 0.625 0.25
0.875 0.75 0.25
0.875 0.875 0.25
0.875 1.0 0.25
1.0 0.0 0.25
1.0 0.125 0.25
1.0 0.25 0.25
1.0 0.375 0.25
1.0 0.5 0.25
1.0 0.625 0.25
1.0 0.75 0.25
1.0 0.875 0.25
1.0 1.0 0.25
0.0 0.0 0.375
0.0 0.125 0.375
0.0 0.25 0.375
0.0 0.375 0.375
0.0 0.5 0.375
0.0 0.625 0.375
0.0 0.75 0.375
0.0 0.875 0.375
0.0 1.0 0.375
0.125 0.0 0.375
0.125 0.125 0.375
0.125 0.25 0.375
0.125 0.375 0.375
0.125 0.5 0.375
0.125 0.625 0.375
0.125 0.75 0.375
0.125 0.875 0.375
0.125 1.0 0.375
0.25 0.0 0.375
0.25 0.125 0.375
0.25 0.25 0.375
0.25 0.375 0.375
0.25 0.5 0.375
0.25 0.625 0.375
0.25 0.75 0.375
0.25 0.875 0.375
0.25 1.0 0.375
0.375 0.0 0.375
0.375 0.125 0.375
0.375 0.25 0.375
0.375 0.375 0.375
0.375 0.5 0.375
0.375 0.625 0.375
0.375 0.75 0.375
0.375 0.875 0.375
0.375 1.0 0.375
0.5 0.0 0.375
0.5 0.125 0.375
0.5 0.25 0.375
0.5 0.375 0.375
0.5 0.5 0.375
0.5 0.625 0.375
0.5 0.75 0.375
0.5 0.875 0.375
0.5 1.0 0.375
0.625 0.0 0.375
0.625 0.125 0.375
0.625 0.25 0.375
0.625 0.375 0.375
0.625 0.5 0.375
0.625 0.625 0.375
0.625 0.75 0.375
0.625 0.875 0.375
0.625 1.0 0.375
0.75 0.0 0.375
0.75 0.125 0.375
0.75 0.25 0.375
0.75 0.375 0.375
0.75 0.5 0.375
0.75 0.625 0.375
0.75 0.75 0.375
0.75 0.875 0.375
0.75 1.0 0.375
0.875 0.0 0.375
0.875 0.125 0.375
0.875 0.25 0.375
0.875 0.375 0.375
0.875 0.5 0.375
0.875 0.625 0.375
0.875 0.75 0.375
0.875 0.875 0.375
0.875 1.0 0.375
1.0 0.0 0.375
1.0 0.125 0.375
1.0 0.25 0.375
1.0 0.375 0.375
1.0 0.5 0.375
1.0 0.625 0.375
1.0 0.75 0.375
1.0 0.875 0.375
1.0 1.0 0.375
0.0 0.0 0.5
0.0 0.125 0.5
0.0 0.25 0.5
0.0 0.375 0.5
0.0 0.5 0.5
0.0 0.625 0.5
0.0 0.75 0.5
0.0 0.875 0.5
0.0 1.0 0.5
0.125 0.0 0.5
0.125 0.125 0.5
0.125 0.25 0.5
0.125 0.375 0.5
0.125 0.5 0.5
0.125 0.625 0.5
0.125 0.75 0.5
0.125 0.875 0.5
0.125 1.0 0.5
0.25 0.0 0.5
0.25 0.125 0.5
0.25 0.25 0.5
0.25 0.375 0.5
0.25 0.5 0.5
0.25 0.625 0.5
0.25 0.75 0.5
0.25 0.875 0.5
0.25 1.0 0.5
0.375 0.0 0.5
0.375 0.125 0.5
0.375 0.25 0.5
0.375 0.375 0.5
0.375 0.5 0.5
0.375 0.625 0.5
0.375 0.75 0.5
0.375 0.875 0.5
0.375 1.0 0.5
0.5 0.0 0.5
0.5 0.125 0.5
0.5 0.25 0.5
0.5 0.375 0.5
0.5 0.5 0.5
0.5 0.625 0.5
0.5 0.75 0.5
0.5 0.875 0.5
0.5 1.0 0.5
0.625 0.0 0.5
0.625 0.125 0.5
0.625 0.25 0.5
0.625 0.375 0.5
0.625 0.5 0.5
0.625 0.625 0.5
0.625 0.75 0.5
0.625 0.875 0.5
0.625 1.0 0.5
0.75 0.0 0.5
0.75 0.125 0.5
0.75 0.25 0.5
0.75 0.375 0.5
0.75 0.5 0.5
0.75 0.625 0.5
0.75 0.75 0.5
0.75 0.875 0.5
0.75 1.0 0.5
0.875 0.0 0.5
0.875 0.125 0.5
0.875 0.25 0.5
0.875 0.375 0.5
0.875 0.5 0.5
0.875 0.625 0.5
0.875 0.75 0.5
0.875 0.875 0.5
0.875 1.0 0.5
1.0 0.0 0.5
1.0 0.125 0.5
1.0 0.25 0.5
1.0 0.375 0.5
1.0 0.5 0.5
1.0 0.625 0.5
1.0 0.75 0.5
1.0 0.875 0.5
1.0 1.0 0.5
0.0 0.0 0.625
0.0 0.125 0.625
0.0 0.25 0.625
0.0 0.375 0.625
0.0 0.5 0.625
0.0 0.625 0.625
0.0 0.75 0.625
0.0 0.875 0.625
0.0 1.0 0.625
0.125 0.0 0.625
0.125 0.125 0.625
0.125 0.25 0.625
0.125 0.375 0.625
0.125 0.5 0.625
0.125 0.625 0.625
0.125 0.75 0.625
0.125 0.875 0.625
0.125 1.0 0.625
0.25 0.0 0.625
0.25 0.125 0.625
0.25 0.25 0.625
0.25 0.375 0.625
0.25 0.5 0.625
0.25 0.625 0.625
0.25 0.75 0.625
0.25 0.875 0.625
0.25 1.0 0.625
0.375 0.0 0.625
0.375 0.125 0.625
0.375 0.25 0.625
0.375 0.375 0.625
0.375 0.5 0.625
0.375 0.625 0.625
0.375 0.75 0.625
0.375 0.875 0.625
0.375 1.0 0.625
0.5 0.0 0.625
0.5 0.125 0.625
0.5 0.25 0.625
0.5 0.375 0.625
0.5 0.5 0.625
0.5 0.625 0.625
0.5 0.75 0.625
0.5 0.875 0.625
0.5 1.0 0.625
0.625 0.0 0.625
0.625 0.125 0.625
0.625 0.25 0.625
0.625 0.375 0.625
0.625 0.5 0.625
0.625 0.625 0.625
0.625 0.75 0.625
0.625 0.875 0.625
0.625 1.0 0.625
0.75 0.0 0.625
0.75 0.125 0.625
0.75 0.25 0.625
0.75 0.375 0.625
0.75 0.5 0.625
0.75 0.625 0.625
0.75 0.75 0.625
0.75 0.875 0.625
0.75 1.0 0.625
0.875 0.0 0.625
0.875 0.125 0.625
0.875 0.25 0.625
0.875 0.375 0.625
0.875 0.5 0.625
0.875 0.625 0.625
0.875 0.75 0.625
0.875 0.875 0.625
0.875 1.0 0.625
1.0 0.0 0.625
1.0 0.125 0.625
1.0 0.25 0.625
1.0 0.375 0.625
1.0 0.5 0.625
1.0 0.625 0.625
1.0 0.75 0.625
1.0 0.875 0.625
1.0 1.0 0.625
0.0 0.0 0.75
0.0 0.125 0.75
0.0 0.25 0.75
0.0 0.375 0.75
0.0 0.5 0.75
0.0 0.625 0.75
0.0 0.75 0.75
0.0 0.875 0.75
0.0 1.0 0.75
0.125 0.0 0.75
0.125 0.125 0.75
0.125 0.25 0.75
0.125 0.375 0.75
0.125 0.5 0.75
0.125 0.625 0.75
0.125 0.75 0.75
0.125 0.875 0.75
0.125 1.0 0.75
0.25 0.0 0.75
0.25 0.125 0.75
0.25 0.25 0.75
0.25 0.375 0.75
0.25 0.5 0.75
0.25 0.625 0.75
0.25 0.75 0.75
0.25 0.875 0.75
0.25 1.0 0.75
0.375 0.0 0.75
0.375 0.125 0.75
0.375 0.25 0.75
0.375 0.375 0.75
0.375 0.5 0.75
0.375 0.625 0.75
0.375 0.75 0.75
0.375 0.875 0.75
0.375 1.0 0.75
0.5 0.0 0.75
0.5 0.125 0.75
0.5 0.25 0.75
0.5 0.375 0.75
0.5 0.5 0.75
0.5 0.625 0.75
0.5 0.75 0.75
0.5 0.875 0.75
0.5 1.0 0.75
0.625 0.0 0.75
0.625 0.125 0.75
0.625 0.25 0.75
0.625 0.375 0.75
0.625 0.5 0.75
0.625 0.625 0.75
0.625 0.75 0.75
0.625 0.875 0.75
0.625 1.0 0.75
0.75 0.0 0.75
0.75 0.125 0.75
0.75 0.25 0.75
0.75 0.375 0.75
0.75 0.5 0.75
0.75 0.625 0.75
0.75 0.75 0.75
0.75 0.875 0.75
0.75 1.0 0.75
0.875 0.0 0.75
0.875 0.125 0.75
0.875 0.25 0.75
0.875 0.375 0.75
0.875 0.5 0.75
0.875 0.625 0.75
0.875 0.75 0.75
0.875 0.875 0.75
0.875 1.0 0.75
1.0 0.0 0.75
1.0 0.125 0.75
1.0 0.25 0.75
1.0 0.375 0.75
1.0 0.5 0.75
1.0 0.625 0.75
1.0 0.75 0.75
1.0 0.875 0.75
1.0 1.0 0.75
0.0 0.0 0.875
0.0 0.125 0.875
0.0 0.25 0.875
0.0 0.375 0.875
0.0 0.5 0.875
0.0 0.625 0.875
0.0 0.75 0.875
0.0 0.875 0.875
0.0 1.0 0.875
0.125 0.0 0.875
0.125 0.125 0.875
0.125 0.25 0.875
0.125 0.375 0.875
0.125 0.5 0.875
0.125 0.625 0.875
0.125 0.75 0.875
0.125 0.875 0.875
0.125 1.0 0.875
0.25 0.0 0.875
0.25 0.125 0.875
0.25 0.25 0.875
0.25 0.375 0.875
0.25 0.5 0.875
0.25 0.625 0.875
0.25 0.75 0.875
0.25 0.875 0.875
0.25 1.0 0.875
0.375 0.0 0.875
0.375 0.125 0.875
0.375 0.25 0.875
0.375 0.375 0.875
0.375 0.5 0.875
0.375 0.625 0.875
0.375 0.75 0.875
0.375 0.875 0.875
0.375 1.0 0.875
0.5 0.0 0.875
0.5 0.125 0.875
0.5 0.25 0.875
0.5 0.375 0.875
0.5 0.5 0.875
0.5 0.625 0.875
0.5 0.75 0.875
0.5 0.875 0.875
0.5 1.0 0.875
0.625 0.0 0.875
0.625 0.125 0.875
0.625 0.25 0.875
0.625 0.375 0.875
0.625 0.5 0.875
0.625 0.625 0.875
0.625 0.75 0.875
0.625 0.875 0.875
0.625 1.0 0.875
0.75 0.0 0.875
0.75 0.125 0.875
0.75 0.25 0.875
0.75 0.375 0.875
0.75 0.5 0.875
0.75 0.625 0.875
0.75 0.75 0.875
0.75 0.875 0.875
0.75 1.0 0.875
0.875 0.0 0.875
0.875 0.125 0.875
0.875 0.25 0.875
0.875 0.375 0.875
0.875 0.5 0.875
0.875 0.625 0.875
0.875 0.75 0.875
0.875 0.875 0.875
0.875 1.0 0.875
[...]
CELL_DATA 512
SCALARS Temperature double
LOOKUP_TABLE default
6.641686048310319
7.526111911059084
8.52824086233948
9.663774386444281
10.950479566570671
12.408480769012826
14.060571900654931
15.932530113198958
7.526111911036067
8.528452162327156
9.664111989261269
10.950905989678791
12.408969439042522
14.061095854435113
15.933086459450298
18.054078006702078
8.528240862318498
9.66411198925925
10.951036761711222
12.409199175890436
14.061415130945521
15.933506850286728
18.054698219672083
20.458004678000474
9.66377438645593
10.950905989676707
12.40919917588643
14.06152428457402
15.93373425227092
18.05508728638878
20.45869591218302
23.18197209173572
10.950479566582294
12.408969439054697
14.061415130960077
15.93373425226978
18.055223701016182
20.45903873253105
23.182701072313684
26.268601972120468
12.408480769002498
14.06109585445542
15.933506850308355
18.055087286381816
20.459038732498488
23.182937139913026
26.269305526380364
29.766175771581203
14.060571900633628
15.93308645943991
18.054698219671383
20.458695912178992
23.182701072283855
26.269305526349704
29.766723040828943
33.72938452784422
15.93253011320086
18.054078006694994
20.45800467798996
23.18197209173803
26.268601972130345
29.766175771581352
33.72938452783904
38.22008345961451
7.526111911049718
8.528452162328382
9.664111989274419
10.950905989679786
12.408969439050823
14.061095854452601
15.933086459443123
18.054078006686048
8.528452162318747
9.66466522698408
10.951809667566348
12.410118215865346
14.062412475898109
15.934491647717405
18.055517997101923
20.458348931115033
9.664111989251877
10.951809667567378
12.410486524075012
14.063062172577485
15.935394743425093
18.05670103354194
20.459992865307534
23.18249917398122
10.950905989675189
12.410118215867087
14.063062172578592
15.93570586923997
18.05734792233434
20.461089120928733
23.184329736015272
26.269257539688315
12.408969439063677
14.062412475899901
15.935394743425489
18.057347922334102
20.46147652327435
23.185292559981555
26.27117696809746
29.766928889769847
14.061095854444146
15.934491647717083
18.05670103353957
20.461089120926072
23.185292559980887
26.271835253871416
29.768756240757373
33.730207858597915
15.933086459422398
18.055517997100143
20.459992865304905
23.184329736009033
26.271176968094572
29.76875624075853
33.73157820534061
38.22101856279324
18.054078006701907
20.45834893112265
23.182499173962707
26.2692575396801
29.766928889763015
33.73020785858944
38.22101856279036
43.3092973666108
8.528240862328001
9.664111989265784
10.951036761709217
12.40919917589008
14.061415130961043
15.933506850312046
18.054698219690263
20.458004677988022
9.664111989253623
10.95180966756706
12.410486524073221
14.06306217257666
15.93539474342739
18.056701033545075
20.459992865309417
23.18249917396669
10.951036761721422
12.410486524074777
14.063609590989172
15.936366174846988
18.058052441165426
20.461749218793887
23.18481772089021
26.269439522155455
12.409199175891866
14.06306217258053
15.936366174847056
18.058522835524926
20.4627252131799
23.186449602502307
26.27202136466618
29.76724149212008
14.061415130957828
15.93539474342836
18.05805244116486
20.462725213179283
23.18703306043506
26.273448133873163
29.76993267688175
33.7306434113541
15.933506850311463
18.056701033541337
20.46174921879205
23.186449602500403
26.273448133871607
29.770897794485872
33.73316943223891
38.22161324315699
18.054698219666726
20.45999286530582
23.184817720886087
26.27202136466189
29.76993267687815
33.73316943223564
38.22344537264843
43.31029739067753
20.458004677993724
23.182499173973756
26.269439522146723
29.76724149210705
33.730643411314304
38.221613243127685
43.310297390680624
49.07594112670697
9.663774386452506
10.950905989685019
12.409199175874729
14.06152428456222
15.93373425229655
18.055087286393864
20.458695912186165
23.18197209174116
10.950905989664049
12.410118215865992
14.063062172577322
15.935705869240024
18.057347922335687
20.461089120933973
23.184329736015876
26.269257539688784
12.4091991759016
14.063062172578862
15.936366174847041
18.058522835525206
20.462725213180825
23.18644960250292
26.272021364668564
29.767241492107374
14.061524284591098
15.935705869241001
18.058522835525274
20.46329674089558
23.187635529279728
26.27399419599
29.77032093965847
33.73078497529876
15.933734252270007
18.057347922336806
20.462725213179635
23.187635529279117
26.274703131657198
29.772043108064345
33.73398961906939
38.22191369498537
18.055087286392236
20.461089120927987
23.186449602501032
26.27399419598805
29.772043108062977
33.73514924151083
38.22490876573913
43.31084326704534
20.458695912177884
23.184329736011904
26.27202136466454
29.770320939654088
33.73398961906311
38.22490876573269
43.312998541293815
49.07705602960597
23.181972091733133
26.269257539692873
29.767241492107182
33.73078497529101
38.22191369494908
43.31084326701954
49.07705602960662
55.61034893939533
10.950479566572072
12.40896943905745
14.061415130956208
15.933734252258608
18.055223701040006
20.459038732515733
23.182701072264987
26.26860197213429
12.408969439049535
14.062412475900533
15.935394743425965
18.057347922336653
20.461476523275753
23.18529255998544
26.2711769681002
29.766928889793302
14.061415130966024
15.935394743426938
18.05805244116575
20.462725213180246
23.187033060436463
26.273448133874087
29.7699326768828
33.7306434113414
15.933734252270753
18.05734792233715
20.46272521318001
23.187635529279728
26.27470313165778
29.77204310806468
33.73398961906839
38.221913694976216
18.055223701017958
20.4614765232745
23.18703306043548
26.274703131657226
29.772795544760402
33.73583955949527
38.225405924264166
43.31102607885009
20.459038732514657
23.185292559980272
26.273448133872407
29.772043108063063
33.735839559493954
38.22666105709534
43.314307356703864
49.07754709123802
23.182701072272927
26.271176968097055
29.76993267688003
33.73398961906526
38.225405924259306
43.31430735670047
49.079925562138406
55.611542704733345
26.26860197212813
29.766928889791515
33.730643411344865
38.22191369497121
43.311026078830295
49.07754709121357
55.611542704733054
63.01476381375169
12.408480769012412
14.06109585446196
15.9335068503077
18.055087286382975
20.45903873251526
23.182937139924718
26.26930552633849
29.766175771594625
14.061095854452127
15.93449164771903
18.056701033543092
20.461089120929685
23.18529255998347
26.27183525387113
29.768756240759746
33.730207858620965
15.933506850313963
18.056701033542712
20.461749218794143
23.186449602502428
26.273448133873508
29.770897794487176
33.73316943223928
38.22161324314132
18.05508728637994
20.46108912093095
23.18644960250219
26.273994195989538
29.772043108064356
33.73514924151191
38.22490876573471
43.310843267051496
20.45903873251667
23.18529255998125
26.27344813387303
29.772043108063972
33.73583955949474
38.22666105709581
43.314307356703196
49.077547091229725
23.182937139917637
26.27183525387004
29.770897794486043
33.735149241510676
38.22666105709504
43.31552036015108
49.08085174420088
55.61189429317431
26.2693055263424
29.768756240758353
33.73316943223674
38.224908765734334
43.31430735670001
49.08085174419917
55.614346908553976
63.01595179585812
29.766175771587402
33.73020785861911
38.22161324315199
43.31084326703853
49.07754709122804
55.61189429316927
63.015951795859316
71.40501510443033
14.060571900660678
15.933086459443942
18.054698219667028
20.458695912181504
23.182701072292776
26.2693055263758
29.76672304082497
33.72938452784842
15.933086459444773
18.055517997103944
20.459992865308926
23.184329736012586
26.271176968097652
29.768756240757394
33.731578205340455
38.22101856280156
18.054698219673995
20.459992865310458
23.184817720888663
26.272021364666415
29.7699326768814
33.73316943223744
38.22344537265058
43.31029739066141
20.458695912187853
23.18432973601371
26.27202136466647
29.77032093965808
33.73398961906719
38.224908765735265
43.312998541295485
49.07705602959193
23.182701072299576
26.271176968097407
29.769932676881197
33.733989619066975
38.225405924262574
43.314307356702
49.07992556213868
55.6115427047231
26.26930552636917
29.768756240757956
33.73316943223689
38.2249087657347
43.314307356701555
49.080851744199705
55.6143469085535
63.01595179585618
29.766723040828442
33.73157820534016
38.2234453726497
43.312998541294924
49.07992556213769
55.61434690855311
63.01814931795552
71.40599225980813
33.72938452784104
38.22101856279383
43.310297390666015
49.07705602958915
55.61154270472339
63.0159517958558
71.40599225980769
80.9123199854599
15.932530113201766
18.05407800668576
20.458004677990754
23.181972091743624
26.26860197212305
29.76617577157727
33.72938452784432
38.22008345961807
18.054078006696034
20.45834893111483
23.182499173972445
26.269257539688944
29.766928889771794
33.73020785859995
38.22101856279185
43.309297366610785
20.458004677997184
23.18249917397341
26.269439522157576
29.767241492110873
33.73064341134305
38.22161324315464
43.31029739066804
49.0759411267147
23.181972091746992
26.26925753968992
29.7672414921109
33.730784975291634
38.22191369497607
43.310843267044426
49.07705602959006
55.61034893940592
26.26860197212665
29.766928889771993
33.73064341134303
38.22191369497602
43.31102607883839
49.07754709122602
55.61154270472426
63.014763813749596
29.766175771579665
33.73020785859971
38.22161324315454
43.31084326704427
49.0775470912259
55.61189429317152
63.015951795856225
71.4050151044247
33.72938452784192
38.22101856279196
43.310297390668154
49.07705602958982
55.611542704724016
63.015951795856154
71.40599225980796
80.9123199854591
38.220083459618635
43.30929736660975
49.07594112671292
55.61034893940654
63.01476381375038
71.40501510442465
80.91231998545908
91.68510402860804
