# vtk DataFile Version 3.0
Generated by easyPDE
ASCII
DATASET UNSTRUCTURED_GRID
POINTS 729 double
0.0 0.0 0.0
0.0 0.125 0.0
0.0 0.25 0.0
0.0 0.375 0.0
0.0 0.5 0.0
0.0 0.625 0.0
0.0 0.75 0.0
0.0 0.875 0.0
0.0 1.0 0.0
0.125 0.0 0.0
0.125 0.125 0.0
0.125 0.25 0.0
0.125 0.375 0.0
0.125 0.5 0.0
0.125 0.625 0.0
0.125 0.75 0.0
0.125 0.875 0.0
0.125 1.0 0.0
0.25 0.0 0.0
0.25 0.125 0.0
0.25 0.25 0.0
0.25 0.375 0.0
0.25 0.5 0.0
0.25 0.625 0.0
0.25 0.75 0.0
0.25 0.875 0.0
0.25 1.0 0.0
0.375 0.0 0.0
0.375 0.125 0.0
0.375 0.25 0.0
0.375 0.375 0.0
0.375 0.5 0.0
0.375 0.625 0.0
0.375 0.75 0.0
0.375 0.875 0.0
0.375 1.0 0.0
0.5 0.0 0.0
0.5 0.125 0.0
0.5 0.25 0.0
0.5 0.375 0.0
0.5 0.5 0.0
0.5 0.625 0.0
0.5 0.75 0.0
0.5 0.875 0.0
0.5 1.0 0.0
0.625 0.0 0.0
0.625 0.125 0.0
0.625 0.25 0.0
0.625 0.375 0.0
0.625 0.5 0.0
0.625 0.625 0.0
0.625 0.75 0.0
0.625 0.875 0.0
0.625 1.0 0.0
0.75 0.0 0.0
0.75 0.125 0.0
0.75 0.25 0.0
0.75 0.375 0.0
0.75 0.5 0.0
0.75 0.625 0.0
0.75 0.75 0.0
0.75 0.875 0.0
0.75 1.0 0.0
0.875 0.0 0.0
0.875 0.125 0.0
0.875 0.25 0.0
0.875 0.375 0.0
0.875 0.5 0.0
0.875 0.625 0.0
0.875 0.75 0.0
0.875 0.875 0.0
0.875 1.0 0.0
1.0 0.0 0.0
1.0 0.125 0.0
1.0 0.25 0.0
1.0 0.375 0.0
1.0 0.5 0.0
1.0 0.625 0.0
1.0 0.75 0.0
1.0 0.875 0.0
1.0 1.0 0.0
0.0 0.0 0.125
0.0 0.125 0.125
0.0 0.25 0.125
0.0 0.375 0.125
0.0 0.5 0.125
0.0 0.625 0.125
0.0 0.75 0.125
0.0 0.875 0.125
0.0 1.0 0.125
0.125 0.0 0.125
0.125 0.125 0.125
0.125 0.25 0.125
0.125 0.375 0.125
0.125 0.5 0.125
0.125 0.625 0.125
0.125 0.75 0.125
0.125 0.875 0.125
0.125 1.0 0.125
0.25 0.0 0.125
0.25 0.125 0.125
0.25 0.25 0.125
0.25 0.375 0.125
0.25 0.5 0.125
0.25 0.625 0.125
0.25 0.75 0.125
0.25 0.875 0.125
0.25 1.0 0.125
0.375 0.0 0.125
0.375 0.125 0.125
0.375 0.25 0.125
0.375 0.375 0.125
0.375 0.5 0.125
0.375 0.625 0.125
0.375 0.75 0.125
0.375 0.875 0.125
0.375 1.0 0.125
0.5 0.0 0.125
0.5 0.125 0.125
0.5 0.25 0.125
0.5 0.375 0.125
0.5 0.5 0.125
0.5 0.625 0.125
0.5 0.75 0.125
0.5 0.875 0.125
0.5 1.0 0.125
0.625 0.0 0.125
0.625 0.125 0.125
0.625 0.25 0.125
0.625 0.375 0.125
0.625 0.5 0.125
0.625 0.625 0.125
0.625 0.75 0.125
0.625 0.875 0.125
0.625 1.0 0.125
0.75 0.0 0.125
0.75 0.125 0.125
0.75 0.25 0.125
0.75 0.375 0.125
0.75 0.5 0.125
0.75 0.625 0.125
0.75 0.75 0.125
0.75 0.875 0.125
0.75 1.0 0.125
0.875 0.0 0.125
0.875 0.125 0.125
0.875 0.25 0.125
0.875 0.375 0.125
0.875 0.5 0.125
0.875 0.625 0.125
0.875 0.75 0.125
0.875 0.875 0.125
0.875 1.0 0.125
1.0 0.0 0.125
1.0 0.125 0.125
1.0 0.25 0.125
1.0 0.375 0.125
1.0 0.5 0.125
1.0 0.625 0.125
1.0 0.75 0.125
1.0 0.875 0.125
1.0 1.0 0.125
0.0 0.0 0.25
0.0 0.125 0.25
0.0 0.25 0.25
0.0 0.375 0.25
0.0 0.5 0.25
0.0 0.625 0.25
0.0 0.75 0.25
0.0 0.875 0.25
0.0 1.0 0.25
0.125 0.0 0.25
0.125 0.125 0.25
0.125 0.25 0.25
0.125 0.375 0.25
0.125 0.5 0.25
0.125 0.625 0.25
0.125 0.75 0.25
0.125 0.875 0.25
0.125 1.0 0.25
0.25 0.0 0.25
0.25 0.125 0.25
0.25 0.25 0.25
0.25 0.375 0.25
0.25 0.5 0.25
0.25 0.625 0.25
0.25 0.75 0.25
0.25 0.875 0.25
0.25 1.0 0.25
0.375 0.0 0.25
0.375 0.125 0.25
0.375 0.25 0.25
0.375 0.375 0.25
0.375 0.5 0.25
0.375 0.625 0.25
0.375 0.75 0.25
0.375 0.875 0.25
0.375 1.0 0.25
0.5 0.0 0.25
0.5 0.125 0.25
0.5 0.25 0.25
0.5 0.375 0.25
0.5 0.5 0.25
0.5 0.625 0.25
0.5 0.75 0.25
0.5 0.875 0.25
0.5 1.0 0.25
0.625 0.0 0.25
0.625 0.125 0.25
0.625 0.25 0.25
0.625 0.375 0.25
0.625 0.5 0.25
0.625 0.625 0.25
0.625 0.75 0.25
0.625 0.875 0.25
0.625 1.0 0.25
0.75 0.0 0.25
0.75 0.125 0.25
0.75 0.25 0.25
0.75 0.375 0.25
0.75 0.5 0.25
0.75 0.625 0.25
0.75 0.75 0.25
0.75 0.875 0.25
0.75 1.0 0.25
0.875 0.0 0.25
0.875 0.125 0.25
0.875 0.25 0.25
0.875 0.375 0.25
0.875 0.5 0.25
0.875 0.625 0.25
0.875 0.75 0.25
0.875 0.875 0.25
0.875 1.0 0.25
1.0 0.0 0.25
1.0 0.125 0.25
1.0 0.25 0.25
1.0 0.375 0.25
1.0 0.5 0.25
1.0 0.625 0.25
1.0 0.75 0.25
1.0 0.875 0.25
1.0 1.0 0.25
0.0 0.0 0.375
0.0 0.125 0.375
0.0 0.25 0.375
0.0 0.375 0.375
0.0 0.5 0.375
0.0 0.625 0.375
0.0 0.75 0.375
0.0 0.875 0.375
0.0 1.0 0.375
0.125 0.0 0.375
0.125 0.125 0.375
0.125 0.25 0.375
0.125 0.375 0.375
0.125 0.5 0.375
0.125 0.625 0.375
0.125 0.75 0.375
0.125 0.875 0.375
0.125 1.0 0.375
0.25 0.0 0.375
0.25 0.125 0.375
0.25 0.25 0.375
0.25 0.375 0.375
0.25 0.5 0.375
0.25 0.625 0.375
0.25 0.75 0.375
0.25 0.875 0.375
0.25 1.0 0.375
0.375 0.0 0.375
0.375 0.125 0.375
0.375 0.25 0.375
0.375 0.375 0.375
0.375 0.5 0.375
0.375 0.625 0.375
0.375 0.75 0.375
0.375 0.875 0.375
0.375 1.0 0.375
0.5 0.0 0.375
0.5 0.125 0.375
0.5 0.25 0.375
0.5 0.375 0.375
0.5 0.5 0.375
0.5 0.625 0.375
0.5 0.75 0.375
0.5 0.875 0.375
0.5 1.0 0.375
0.625 0.0 0.375
0.625 0.125 0.375
0.625 0.25 0.375
0.625 0.375 0.375
0.625 0.5 0.375
0.625 0.625 0.375
0.625 0.75 0.375
0.625 0.875 0.375
0.625 1.0 0.375
0.75 0.0 0.375
0.75 0.125 0.375
0.75 0.25 0.375
0.75 0.375 0.375
0.75 0.5 0.375
0.75 0.625 0.375
0.75 0.75 0.375
0.75 0.875 0.375
0.75 1.0 0.375
0.875 0.0 0.375
0.875 0.125 0.375
0.875 0.25 0.375
0.875 0.375 0.375
0.875 0.5 0.375
0.875 0.625 0.375
0.875 0.75 0.375
0.875 0.875 0.375
0.875 1.0 0.375
1.0 0.0 0.375
1.0 0.125 0.375
1.0 0.25 0.375
1.0 0.375 0.375
1.0 0.5 0.375
1.0 0.625 0.375
1.0 0.75 0.375
1.0 0.875 0.375
1.0 1.0 0.375
0.0 0.0 0.5
0.0 0.125 0.5
0.0 0.25 0.5
0.0 0.375 0.5
0.0 0.5 0.5
0.0 0.625 0.5
0.0 0.75 0.5
0.0 0.875 0.5
0.0 1.0 0.5
0.125 0.0 0.5
0.125 0.125 0.5
0.125 0.25 0.5
0.125 0.375 0.5
0.125 0.5 0.5
0.125 0.625 0.5
0.125 0.75 0.5
0.125 0.875 0.5
0.125 1.0 0.5
0.25 0.0 0.5
0.25 0.125 0.5
0.25 0.25 0.5
0.25 0.375 0.5
0.25 0.5 0.5
0.25 0.625 0.5
0.25 0.75 0.5
0.25 0.875 0.5
0.25 1.0 0.5
0.375 0.0 0.5
0.375 0.125 0.5
0.375 0.25 0.5
0.375 0.375 0.5
0.375 0.5 0.5
0.375 0.625 0.5
0.375 0.75 0.5
0.375 0.875 0.5
0.375 1.0 0.5
0.5 0.0 0.5
0.5 0.125 0.5
0.5 0.25 0.5
0.5 0.375 0.5
0.5 0.5 0.5
0.5 0.625 0.5
0.5 0.75 0.5
0.5 0.875 0.5
0.5 1.0 0.5
0.625 0.0 0.5
0.625 0.125 0.5
0.625 0.25 0.5
0.625 0.375 0.5
0.625 0.5 0.5
0.625 0.625 0.5
0.625 0.75 0.5
0.625 0.875 0.5
0.625 1.0 0.5
0.75 0.0 0.5
0.75 0.125 0.5
0.75 0.25 0.5
0.75 0.375 0.5
0.75 0.5 0.5
0.75 0.625 0.5
0.75 0.75 0.5
0.75 0.875 0.5
0.75 1.0 0.5
0.875 0.0 0.5
0.875 0.125 0.5
0.875 0.25 0.5
0.875 0.375 0.5
0.875 0.5 0.5
0.875 0.625 0.5
0.875 0.75 0.5
0.875 0.875 0.5
0.875 1.0 0.5
1.0 0.0 0.5
1.0 0.125 0.5
1.0 0.25 0.5
1.0 0.375 0.5
1.0 0.5 0.5
1.0 0.625 0.5
1.0 0.75 0.5
1.0 0.875 0.5
1.0 1.0 0.5
0.0 0.0 0.625
0.0 0.125 0.625
0.0 0.25 0.625
0.0 0.375 0.625
0.0 0.5 0.625
0.0 0.625 0.625
0.0 0.75 0.625
0.0 0.875 0.625
0.0 1.0 0.625
0.125 0.0 0.625
0.125 0.125 0.625
0.125 0.25 0.625
0.125 0.375 0.625
0.125 0.5 0.625
0.125 0.625 0.625
0.125 0.75 0.625
0.125 0.875 0.625
0.125 1.0 0.625
0.25 0.0 0.625
0.25 0.125 0.625
0.25 0.25 0.625
0.25 0.375 0.625
0.25 0.5 0.625
0.25 0.625 0.625
0.25 0.75 0.625
0.25 0.875 0.625
0.25 1.0 0.625
0.375 0.0 0.625
0.375 0.125 0.625
0.375 0.25 0.625
0.375 0.375 0.625
0.375 0.5 0.625
0.375 0.625 0.625
0.375 0.75 0.625
0.375 0.875 0.625
0.375 1.0 0.625
0.5 0.0 0.625
0.5 0.125 0.625
0.5 0.25 0.625
0.5 0.375 0.625
0.5 0.5 0.625
0.5 0.625 0.625
0.5 0.75 0.625
0.5 0.875 0.625
0.5 1.0 0.625
0.625 0.0 0.625
0.625 0.125 0.625
0.625 0.25 0.625
0.625 0.375 0.625
0.625 0.5 0.625
0.625 0.625 0.625
0.625 0.75 0.625
0.625 0.875 0.625
0.625 1.0 0.625
0.75 0.0 0.625
0.75 0.125 0.625
0.75 0.25 0.625
0.75 0.375 0.625
0.75 0.5 0.625
0.75 0.625 0.625
0.75 0.75 0.625
0.75 0.875 0.625
0.75 1.0 0.625
0.875 0.0 0.625
0.875 0.125 0.625
0.875 0.25 0.625
0.875 0.375 0.625
0.875 0.5 0.625
0.875 0.625 0.625
0.875 0.75 0.625
0.875 0.875 0.625
0.875 1.0 0.625
1.0 0.0 0.625
1.0 0.125 0.625
1.0 0.25 0.625
1.0 0.375 0.625
1.0 0.5 0.625
1.0 0.625 0.625
1.0 0.75 0.625
1.0 0.875 0.625
1.0 1.0 0.625
0.0 0.0 0.75
0.0 0.125 0.75
0.0 0.25 0.75
0.0 0.375 0.75
0.0 0.5 0.75
0.0 0.625 0.75
0.0 0.75 0.75
0.0 0.875 0.75
0.0 1.0 0.75
0.125 0.0 0.75
0.125 0.125 0.75
0.125 0.25 0.75
0.125 0.375 0.75
0.125 0.5 0.75
0.125 0.625 0.75
0.125 0.75 0.75
0.125 0.875 0.75
0.125 1.0 0.75
0.25 0.0 0.75
0.25 0.125 0.75
0.25 0.25 0.75
0.25 0.375 0.75
0.25 0.5 0.75
0.25 0.625 0.75
0.25 0.75 0.75
0.25 0.875 0.75
0.25 1.0 0.75
0.375 0.0 0.75
0.375 0.125 0.75
0.375 0.25 0.75
0.375 0.375 0.75
0.375 0.5 0.75
0.375 0.625 0.75
0.375 0.75 0.75
0.375 0.875 0.75
0.375 1.0 0.75
0.5 0.0 0.75
0.5 0.125 0.75
0.5 0.25 0.75
0.5 0.375 0.75
0.5 0.5 0.75
0.5 0.625 0.75
0.5 0.75 0.75
0.5 0.875 0.75
0.5 1.0 0.75
0.625 0.0 0.75
0.625 0.125 0.75
0.625 0.25 0.75
0.625 0.375 0.75
0.625 0.5 0.75
0.625 0.625 0.75
0.625 0.75 0.75
0.625 0.875 0.75
0.625 1.0 0.75
0.75 0.0 0.75
0.75 0.125 0.75
0.75 0.25 0.75
0.75 0.375 0.75
0.75 0.5 0.75
0.75 0.625 0.75
0.75 0.75 0.75
0.75 0.875 0.75
0.75 1.0 0.75
0.875 0.0 0.75
0.875 0.125 0.75
0.875 0.25 0.75
0.875 0.375 0.75
0.875 0.5 0.75
0.875 0.625 0.75
0.875 0.75 0.75
0.875 0.875 0.75
0.875 1.0 0.75
1.0 0.0 0.75
1.0 0.125 0.75
1.0 0.25 0.75
1.0 0.375 0.75
1.0 0.5 0.75
1.0 0.625 0.75
1.0 0.75 0.75
1.0 0.875 0.75
1.0 1.0 0.75
0.0 0.0 0.875
0.0 0.125 0.875
0.0 0.25 0.875
0.0 0.375 0.875
0.0 0.5 0.875
0.0 0.625 0.875
0.0 0.75 0.875
0.0 0.875 0.875
0.0 1.0 0.875
0.125 0.0 0.875
0.125 0.125 0.875
0.125 0.25 0.875
0.125 0.375 0.875
0.125 0.5 0.875
0.125 0.625 0.875
0.125 0.75 0.875
0.125 0.875 0.875
0.125 1.0 0.875
0.25 0.0 0.875
0.25 0.125 0.875
0.25 0.25 0.875
0.25 0.375 0.875
0.25 0.5 0.875
0.25 0.625 0.875
0.25 0.75 0.875
0.25 0.875 0.875
0.25 1.0 0.875
0.375 0.0 0.875
0.375 0.125 0.875
0.375 0.25 0.875
0.375 0.375 0.875
0.375 0.5 0.875
0.375 0.625 0.875
0.375 0.75 0.875
0.375 0.875 0.875
0.375 1.0 0.875
0.5 0.0 0.875
0.5 0.125 0.875
0.5 0.25 0.875
0.5 0.375 0.875
0.5 0.5 0.875
0.5 0.625 0.875
0.5 0.75 0.875
0.5 0.875 0.875
0.5 1.0 0.875
0.625 0.0 0.875
0.625 0.125 0.875
0.625 0.25 0.875
0.625 0.375 0.875
0.625 0.5 0.875
0.625 0.625 0.875
0.625 0.75 0.875
0.625 0.875 0.875
0.625 1.0 0.875
0.75 0.0 0.875
0.75 0.125 0.875
0.75 0.25 0.875
0.75 0.375 0.875
0.75 0.5 0.875
0.75 0.625 0.875
0.75 0.75 0.875
0.75 0.875 0.875
0.75 1.0 0.875
0.875 0.0 0.875
0.875 0.125 0.875
0.875 0.25 0.875
0.875 0.375 0.875
0.875 0.5 0.875
0.875 0.625 0.875
0.875 0.75 0.875
0.875 0.875 0.875
0.875 1.0 0.875
[...]
CELL_DATA 512
SCALARS Temperature double
LOOKUP_TABLE default
6.009645055767319
6.809906197505238
7.716670253268875
8.744143099523141
9.908401882818241
11.227656149938609
12.722528562153133
14.416347022407207
6.809906197521426
7.7168608380656645
8.744449024953163
9.90878770877094
11.228097832557006
12.723004449473745
14.416848979450167
16.336001679272727
7.716670253280991
8.744449024950814
9.908907455305453
11.228306635548588
12.723293285308463
14.417233121260052
16.336564003319886
18.511165075250176
8.7441430995074
9.908787708768852
11.228306635550869
12.723391269795046
14.417436586984529
16.336917462806454
18.51178979127534
20.97591188263543
9.908401882816232
11.228097832558923
12.723293285301358
14.417436586987087
16.337039272805733
18.51210254190938
20.976571103749635
23.76880958219176
11.22765614995689
12.723004449463954
14.417233121239326
16.336917462806312
18.51210254192998
20.976789623534998
23.769447707960612
26.933545561962088
12.722528562161786
14.41684897944232
16.33656400330199
18.511789791261506
20.976571103753294
23.769447707973846
26.934036695596895
30.519601782970515
14.416347022403752
16.336001679271543
18.511165075251196
20.975911882626228
23.768809582177113
26.93354556196046
30.519601782972963
34.58295597130549
6.809906197512527
7.716860838061318
8.74444902493571
9.908787708766672
11.228097832555882
12.72300444947093
14.41684897945774
16.336001679285957
7.716860838072456
8.744949616190928
9.909607630984688
11.22913852800033
12.724196068093157
14.418125842355558
16.3373053838674
18.511474794259907
8.744449024963643
9.90960763098452
11.229474637491137
12.724785489572195
14.41894205101183
16.338382753608478
18.512967282674143
20.976389332629967
9.908787708775026
11.229138528000838
12.724785489571648
14.419221656479035
16.338962445756497
18.51396105478853
20.97804691762827
23.769402321427798
11.228097832554631
12.724196068092532
14.41894205101114
16.338962445755527
18.514307611623764
20.97892250745127
23.771141562576922
26.934225613166266
12.72300444948052
14.418125842353446
16.338382753607178
18.513961054786545
20.978922507448374
23.771747139868374
26.935886591999317
30.52035016236801
14.416848979464794
16.33730538386378
18.512967282669955
20.978046917627104
23.771141562573938
26.935886591994528
30.52158703468178
34.58379759825094
16.336001679272407
18.511474794244187
20.97638933264185
23.769402321428878
26.934225613165456
30.52035016237503
34.583797598245795
39.18786387473286
7.716670253275345
8.74444902493727
9.908907455299511
11.228306635543634
12.723293285298833
14.417233121260763
16.336564003311643
18.511165075260674
8.744449024960701
9.909607630982563
11.229474637490451
12.724785489572389
14.418942051012522
16.338382753609118
18.512967282674328
20.976389332653266
9.908907455297234
11.229474637491025
12.725283728835217
14.419822194028312
16.339603332621348
18.514562561751397
20.978493990414634
23.7695701128728
11.228306635544866
12.724785489570504
14.419822194028091
16.340026553520552
18.515438406510047
20.979970874264236
23.771908753225254
26.934510648636863
12.72329328530903
14.418942051010443
16.3396033326205
18.51543840650952
20.980493633635174
23.77320300636584
26.936949903570515
30.520744588078077
14.417233121252016
16.33838275360896
18.51456256175002
20.979970874263046
23.77320300636526
26.937833336863136
30.523041024777825
34.58434438177442
16.336564003324646
18.51296728267232
20.978493990413572
23.77190875322458
26.936949903569136
30.523041024777626
34.58600256668565
39.18877033276863
18.511165075252464
20.976389332627015
23.76957011287486
26.934510648643982
30.520744588104645
34.58434438179549
39.188770332758324
44.40574015294337
8.744143099507736
9.90878770875021
11.228306635552094
12.723391269798565
14.417436586969126
16.336917462826484
18.511789791277877
20.975911882623745
9.908787708780093
11.229138527999197
12.724785489570959
14.41922165647956
16.338962445758867
18.513961054787966
20.978046917629634
23.769402321420255
11.228306635532215
12.724785489571138
14.41982219402811
16.340026553520975
18.515438406510402
20.979970874264662
23.771908753223205
26.934510648644057
12.723391269777677
14.419221656478241
16.34002655352053
18.515952791913413
20.981035470807733
23.7736932532689
26.93729759555082
30.520871084841026
14.417436586992176
16.338962445754802
18.515438406509976
20.981035470807328
23.774328643387815
26.93885857228316
30.523772913340835
34.58461169372507
16.336917462804454
18.51396105478946
20.97997087426354
23.773693253268217
26.93885857228258
30.524832844514826
34.587331308225146
39.18926799447247
18.511789791275717
20.97804691762829
23.771908753223485
26.937297595549303
30.52377291334119
34.58733130822758
39.191216492107685
44.40674653553566
20.975911882631237
23.769402321414073
26.934510648640952
30.5208710848489
34.58461169373362
39.189267994478115
44.40674653554341
50.318314987213405
9.908401882819865
11.228097832552022
12.723293285305548
14.417436586995539
16.337039272793344
18.512102541939395
20.976571103786227
23.7688095821711
11.228097832563408
12.72419606809261
14.418942051011543
16.338962445756003
18.514307611627146
20.978922507451493
23.771141562574513
26.934225613130625
12.723293285299185
14.418942051011634
16.339603332620953
18.515438406510505
20.98049363363599
23.773203006366302
26.93694990356805
30.520744588092224
14.417436586983907
16.338962445754362
18.515438406510317
20.981035470807697
23.774328643388145
26.938858572283237
30.52377291334175
34.58461169373082
16.337039272801235
18.51430761162544
20.980493633635472
23.77432864338783
26.93953233285561
30.525449720115773
34.587774033334554
39.18943022695453
18.512102541923806
20.978922507452996
23.773203006365502
26.938858572282527
30.525449720115247
34.588921835403035
39.192410239853025
44.40719700014477
20.97657110378091
23.771141562574652
26.93694990356831
30.523772913339222
34.58777403333321
39.192410239852805
44.409347370173315
50.31939332244915
23.768809582180573
26.93422561313825
30.520744588083446
34.58461169373061
39.189430226943735
44.407197000144514
50.319393322459874
57.0181053727428
11.227656149947945
12.723004449471535
14.417233121252478
16.336917462811417
18.512102541927753
20.976789623538068
23.769447707983648
26.933545561948666
12.723004449484224
14.4181258423562
16.33838275360853
18.513961054788737
20.978922507452026
23.771747139871838
26.93588659199588
30.520350162340808
14.417233121253824
16.338382753610606
18.5145625617511
20.97997087426446
23.773203006366423
26.937833336863367
30.523041024775967
34.58434438178386
16.336917462808135
18.51396105478775
20.979970874264453
23.773693253269027
26.93885857228318
30.52483284451484
34.587331308228556
39.189267994465155
18.512102541920697
20.978922507451788
23.773203006365982
26.938858572282932
30.52544972011563
34.58892183540322
39.19241023985464
44.40719700014243
20.97678962354295
23.771747139871643
26.937833336862855
30.524832844514222
34.58892183540261
39.19352306350406
44.41020497377024
50.319722349097034
23.769447707996775
26.935886591996503
30.523041024776056
34.587331308225515
39.19241023985266
44.41020497376901
50.321944035102
57.01918209379919
26.93354556195323
30.520350162338453
34.5843443817721
39.18926799446937
44.40719700013604
50.319722349095116
57.01918209380064
64.60991907961107
12.722528562143891
14.416848979452839
16.336564003316244
18.511789791270527
20.976571103762417
23.769447707964403
26.934036695595854
30.519601782969538
14.416848979463953
16.337305383866983
18.512967282672818
20.97804691762997
23.771141562576297
26.93588659199799
30.521587034680067
34.583797598236075
16.336564003330643
18.51296728267363
20.978493990415934
23.771908753225265
26.93694990356984
30.52304102477752
34.58600256668276
39.188770332766005
18.511789791266594
20.978046917629975
23.77190875322525
26.937297595550316
30.523772913341382
34.587331308227206
39.19121649210582
44.406746535549544
20.97657110375502
23.771141562575487
26.936949903569673
30.52377291334126
34.587774033333815
39.19241023985366
44.40934737017323
50.319393322464194
23.769447707970073
26.93588659199757
30.523041024777225
34.58733130822675
39.19241023985328
44.410204973769794
50.32194403510259
57.01918209380153
26.93403669560148
30.52158703468038
34.58600256668201
39.1912164921047
44.4093473701722
50.32194403510188
57.021162822483255
64.61079244091017
30.51960178296978
34.58379759823839
39.18877033276516
44.406746535549885
50.31939332246156
57.01918209380034
64.61079244091059
73.2124766301205
14.41634702240036
16.336001679280226
18.511165075251842
20.975911882624604
23.7688095821878
26.933545561963246
30.519601782968195
34.5829559713033
16.336001679280532
18.511474794260717
20.976389332639286
23.769402321422504
26.934225613160297
30.520350162361503
34.58379759824355
39.18786387473061
18.511165075258788
20.976389332639506
23.769570112874554
26.934510648643947
30.52074458808727
34.58434438177177
39.188770332764214
44.40574015293569
20.97591188262248
23.769402321422447
26.93451064864397
30.52087108485192
34.58461169372906
39.18926799446706
44.40674653555028
50.31831498720623
23.76880958218144
26.934225613160148
30.520744588087204
34.58461169372902
39.18943022695307
44.40719700014254
50.31939332246227
57.01810537274329
26.933545561960354
30.52035016236165
34.58434438177164
39.189267994466924
44.40719700014244
50.31972234909379
57.01918209380064
64.60991907961429
30.519601782969957
34.58379759824353
39.1887703327639
44.40674653555012
50.31939332246203
57.019182093800424
64.61079244091013
73.21247663012075
34.58295597130188
39.18786387473065
44.40574015293721
50.318314987205035
57.018105372741886
64.60991907961414
73.21247663012075
82.96009946380659
