# vtk DataFile Version 3.0
Generated by easyPDE
ASCII
DATASET UNSTRUCTURED_GRID
POINTS 729 double
0.0 0.0 0.0
0.0 0.125 0.0
0.0 0.25 0.0
0.0 0.375 0.0
0.0 0.5 0.0
0.0 0.625 0.0
0.0 0.75 0.0
0.0 0.875 0.0
0.0 1.0 0.0
0.125 0.0 0.0
0.125 0.125 0.0
0.125 0.25 0.0
0.125 0.375 0.0
0.125 0.5 0.0
0.125 0.625 0.0
0.125 0.75 0.0
0.125 0.875 0.0
0.125 1.0 0.0
0.25 0.0 0.0
0.25 0.125 0.0
0.25 0.25 0.0
0.25 0.375 0.0
0.25 0.5 0.0
0.25 0.625 0.0
0.25 0.75 0.0
0.25 0.875 0.0
0.25 1.0 0.0
0.375 0.0 0.0
0.375 0.125 0.0
0.375 0.25 0.0
0.375 0.375 0.0
0.375 0.5 0.0
0.375 0.625 0.0
0.375 0.75 0.0
0.375 0.875 0.0
0.375 1.0 0.0
0.5 0.0 0.0
0.5 0.125 0.0
0.5 0.25 0.0
0.5 0.375 0.0
0.5 0.5 0.0
0.5 0.625 0.0
0.5 0.75 0.0
0.5 0.875 0.0
0.5 1.0 0.0
0.625 0.0 0.0
0.625 0.125 0.0
0.625 0.25 0.0
0.625 0.375 0.0
0.625 0.5 0.0
0.625 0.625 0.0
0.625 0.75 0.0
0.625 0.875 0.0
0.625 1.0 0.0
0.75 0.0 0.0
0.75 0.125 0.0
0.75 0.25 0.0
0.75 0.375 0.0
0.75 0.5 0.0
0.75 0.625 0.0
0.75 0.75 0.0
0.75 0.875 0.0
0.75 1.0 0.0
0.875 0.0 0.0
0.875 0.125 0.0
0.875 0.25 0.0
0.875 0.375 0.0
0.875 0.5 0.0
0.875 0.625 0.0
0.875 0.75 0.0
0.875 0.875 0.0
0.875 1.0 0.0
1.0 0.0 0.0
1.0 0.125 0.0
1.0 0.25 0.0
1.0 0.375 0.0
1.0 0.5 0.0
1.0 0.625 0.0
1.0 0.75 0.0
1.0 0.875 0.0
1.0 1.0 0.0
0.0 0.0 0.125
0.0 0.125 0.125
0.0 0.25 0.125
0.0 0.375 0.125
0.0 0.5 0.125
0.0 0.625 0.125
0.0 0.75 0.125
0.0 0.875 0.125
0.0 1.0 0.125
0.125 0.0 0.125
0.125 0.125 0.125
0.125 0.25 0.125
0.125 0.375 0.125
0.125 0.5 0.125
0.125 0.625 0.125
0.125 0.75 0.125
0.125 0.875 0.125
0.125 1.0 0.125
0.25 0.0 0.125
0.25 0.125 0.125
0.25 0.25 0.125
0.25 0.375 0.125
0.25 0.5 0.125
0.25 0.625 0.125
0.25 0.75 0.125
0.25 0.875 0.125
0.25 1.0 0.125
0.375 0.0 0.125
0.375 0.125 0.125
0.375 0.25 0.125
0.375 0.375 0.125
0.375 0.5 0.125
0.375 0.625 0.125
0.375 0.75 0.125
0.375 0.875 0.125
0.375 1.0 0.125
0.5 0.0 0.125
0.5 0.125 0.125
0.5 0.25 0.125
0.5 0.375 0.125
0.5 0.5 0.125
0.5 0.625 0.125
0.5 0.75 0.125
0.5 0.875 0.125
0.5 1.0 0.125
0.625 0.0 0.125
0.625 0.125 0.125
0.625 0.25 0.125
0.625 0.375 0.125
0.625 0.5 0.125
0.625 0.625 0.125
0.625 0.75 0.125
0.625 0.875 0.125
0.625 1.0 0.125
0.75 0.0 0.125
0.75 0.125 0.125
0.75 0.25 0.125
0.75 0.375 0.125
0.75 0.5 0.125
0.75 0.625 0.125
0.75 0.75 0.125
0.75 0.875 0.125
0.75 1.0 0.125
0.875 0.0 0.125
0.875 0.125 0.125
0.875 0.25 0.125
0.875 0.375 0.125
0.875 0.5 0.125
0.875 0.625 0.125
0.875 0.75 0.125
0.875 0.875 0.125
0.875 1.0 0.125
1.0 0.0 0.125
1.0 0.125 0.125
1.0 0.25 0.125
1.0 0.375 0.125
1.0 0.5 0.125
1.0 0.625 0.125
1.0 0.75 0.125
1.0 0.875 0.125
1.0 1.0 0.125
0.0 0.0 0.25
0.0 0.125 0.25
0.0 0.25 0.25
0.0 0.375 0.25
0.0 0.5 0.25
0.0 0.625 0.25
0.0 0.75 0.25
0.0 0.875 0.25
0.0 1.0 0.25
0.125 0.0 0.25
0.125 0.125 0.25
0.125 0.25 0.25
0.125 0.375 0.25
0.125 0.5 0.25
0.125 0.625 0.25
0.125 0.75 0.25
0.125 0.875 0.25
0.125 1.0 0.25
0.25 0.0 0.25
0.25 0.125 0.25
0.25 0.25 0.25
0.25 0.375 0.25
0.25 0.5 0.25
0.25 0.625 0.25
0.25 0.75 0.25
0.25 0.875 0.25
0.25 1.0 0.25
0.375 0.0 0.25
0.375 0.125 0.25
0.375 0.25 0.25
0.375 0.375 0.25
0.375 0.5 0.25
0.375 0.625 0.25
0.375 0.75 0.25
0.375 0.875 0.25
0.375 1.0 0.25
0.5 0.0 0.25
0.5 0.125 0.25
0.5 0.25 0.25
0.5 0.375 0.25
0.5 0.5 0.25
0.5 0.625 0.25
0.5 0.75 0.25
0.5 0.875 0.25
0.5 1.0 0.25
0.625 0.0 0.25
0.625 0.125 0.25
0.625 0.25 0.25
0.625 0.375 0.25
0.625 0.5 0.25
0.625 0.625 0.25
0.625 0.75 0.25
0.625 0.875 0.25
0.625 1.0 0.25
0.75 0.0 0.25
0.75 0.125 0.25
0.75 0.25 0.25
0.75 0.375 0.25
0.75 0.5 0.25
0.75 0.625 0.25
0.75 0.75 0.25
0.75 0.875 0.25
0.75 1.0 0.25
0.875 0.0 0.25
0.875 0.125 0.25
0.875 0.25 0.25
0.875 0.375 0.25
0.875 0.5 0.25
0.875 0.625 0.25
0.875 0.75 0.25
0.875 0.875 0.25
0.875 1.0 0.25
1.0 0.0 0.25
1.0 0.125 0.25
1.0 0.25 0.25
1.0 0.375 0.25
1.0 0.5 0.25
1.0 0.625 0.25
1.0 0.75 0.25
1.0 0.875 0.25
1.0 1.0 0.25
0.0 0.0 0.375
0.0 0.125 0.375
0.0 0.25 0.375
0.0 0.375 0.375
0.0 0.5 0.375
0.0 0.625 0.375
0.0 0.75 0.375
0.0 0.875 0.375
0.0 1.0 0.375
0.125 0.0 0.375
0.125 0.125 0.375
0.125 0.25 0.375
0.125 0.375 0.375
0.125 0.5 0.375
0.125 0.625 0.375
0.125 0.75 0.375
0.125 0.875 0.375
0.125 1.0 0.375
0.25 0.0 0.375
0.25 0.125 0.375
0.25 0.25 0.375
0.25 0.375 0.375
0.25 0.5 0.375
0.25 0.625 0.375
0.25 0.75 0.375
0.25 0.875 0.375
0.25 1.0 0.375
0.375 0.0 0.375
0.375 0.125 0.375
0.375 0.25 0.375
0.375 0.375 0.375
0.375 0.5 0.375
0.375 0.625 0.375
0.375 0.75 0.375
0.375 0.875 0.375
0.375 1.0 0.375
0.5 0.0 0.375
0.5 0.125 0.375
0.5 0.25 0.375
0.5 0.375 0.375
0.5 0.5 0.375
0.5 0.625 0.375
0.5 0.75 0.375
0.5 0.875 0.375
0.5 1.0 0.375
0.625 0.0 0.375
0.625 0.125 0.375
0.625 0.25 0.375
0.625 0.375 0.375
0.625 0.5 0.375
0.625 0.625 0.375
0.625 0.75 0.375
0.625 0.875 0.375
0.625 1.0 0.375
0.75 0.0 0.375
0.75 0.125 0.375
0.75 0.25 0.375
0.75 0.375 0.375
0.75 0.5 0.375
0.75 0.625 0.375
0.75 0.75 0.375
0.75 0.875 0.375
0.75 1.0 0.375
0.875 0.0 0.375
0.875 0.125 0.375
0.875 0.25 0.375
0.875 0.375 0.375
0.875 0.5 0.375
0.875 0.625 0.375
0.875 0.75 0.375
0.875 0.875 0.375
0.875 1.0 0.375
1.0 0.0 0.375
1.0 0.125 0.375
1.0 0.25 0.375
1.0 0.375 0.375
1.0 0.5 0.375
1.0 0.625 0.375
1.0 0.75 0.375
1.0 0.875 0.375
1.0 1.0 0.375
0.0 0.0 0.5
0.0 0.125 0.5
0.0 0.25 0.5
0.0 0.375 0.5
0.0 0.5 0.5
0.0 0.625 0.5
0.0 0.75 0.5
0.0 0.875 0.5
0.0 1.0 0.5
0.125 0.0 0.5
0.125 0.125 0.5
0.125 0.25 0.5
0.125 0.375 0.5
0.125 0.5 0.5
0.125 0.625 0.5
0.125 0.75 0.5
0.125 0.875 0.5
0.125 1.0 0.5
0.25 0.0 0.5
0.25 0.125 0.5
0.25 0.25 0.5
0.25 0.375 0.5
0.25 0.5 0.5
0.25 0.625 0.5
0.25 0.75 0.5
0.25 0.875 0.5
0.25 1.0 0.5
0.375 0.0 0.5
0.375 0.125 0.5
0.375 0.25 0.5
0.375 0.375 0.5
0.375 0.5 0.5
0.375 0.625 0.5
0.375 0.75 0.5
0.375 0.875 0.5
0.375 1.0 0.5
0.5 0.0 0.5
0.5 0.125 0.5
0.5 0.25 0.5
0.5 0.375 0.5
0.5 0.5 0.5
0.5 0.625 0.5
0.5 0.75 0.5
0.5 0.875 0.5
0.5 1.0 0.5
0.625 0.0 0.5
0.625 0.125 0.5
0.625 0.25 0.5
0.625 0.375 0.5
0.625 0.5 0.5
0.625 0.625 0.5
0.625 0.75 0.5
0.625 0.875 0.5
0.625 1.0 0.5
0.75 0.0 0.5
0.75 0.125 0.5
0.75 0.25 0.5
0.75 0.375 0.5
0.75 0.5 0.5
0.75 0.625 0.5
0.75 0.75 0.5
0.75 0.875 0.5
0.75 1.0 0.5
0.875 0.0 0.5
0.875 0.125 0.5
0.875 0.25 0.5
0.875 0.375 0.5
0.875 0.5 0.5
0.875 0.625 0.5
0.875 0.75 0.5
0.875 0.875 0.5
0.875 1.0 0.5
1.0 0.0 0.5
1.0 0.125 0.5
1.0 0.25 0.5
1.0 0.375 0.5
1.0 0.5 0.5
1.0 0.625 0.5
1.0 0.75 0.5
1.0 0.875 0.5
1.0 1.0 0.5
0.0 0.0 0.625
0.0 0.125 0.625
0.0 0.25 0.625
0.0 0.375 0.625
0.0 0.5 0.625
0.0 0.625 0.625
0.0 0.75 0.625
0.0 0.875 0.625
0.0 1.0 0.625
0.125 0.0 0.625
0.125 0.125 0.625
0.125 0.25 0.625
0.125 0.375 0.625
0.125 0.5 0.625
0.125 0.625 0.625
0.125 0.75 0.625
0.125 0.875 0.625
0.125 1.0 0.625
0.25 0.0 0.625
0.25 0.125 0.625
0.25 0.25 0.625
0.25 0.375 0.625
0.25 0.5 0.625
0.25 0.625 0.625
0.25 0.75 0.625
0.25 0.875 0.625
0.25 1.0 0.625
0.375 0.0 0.625
0.375 0.125 0.625
0.375 0.25 0.625
0.375 0.375 0.625
0.375 0.5 0.625
0.375 0.625 0.625
0.375 0.75 0.625
0.375 0.875 0.625
0.375 1.0 0.625
0.5 0.0 0.625
0.5 0.125 0.625
0.5 0.25 0.625
0.5 0.375 0.625
0.5 0.5 0.625
0.5 0.625 0.625
0.5 0.75 0.625
0.5 0.875 0.625
0.5 1.0 0.625
0.625 0.0 0.625
0.625 0.125 0.625
0.625 0.25 0.625
0.625 0.375 0.625
0.625 0.5 0.625
0.625 0.625 0.625
0.625 0.75 0.625
0.625 0.875 0.625
0.625 1.0 0.625
0.75 0.0 0.625
0.75 0.125 0.625
0.75 0.25 0.625
0.75 0.375 0.625
0.75 0.5 0.625
0.75 0.625 0.625
0.75 0.75 0.625
0.75 0.875 0.625
0.75 1.0 0.625
0.875 0.0 0.625
0.875 0.125 0.625
0.875 0.25 0.625
0.875 0.375 0.625
0.875 0.5 0.625
0.875 0.625 0.625
0.875 0.75 0.625
0.875 0.875 0.625
0.875 1.0 0.625
1.0 0.0 0.625
1.0 0.125 0.625
1.0 0.25 0.625
1.0 0.375 0.625
1.0 0.5 0.625
1.0 0.625 0.625
1.0 0.75 0.625
1.0 0.875 0.625
1.0 1.0 0.625
0.0 0.0 0.75
0.0 0.125 0.75
0.0 0.25 0.75
0.0 0.375 0.75
0.0 0.5 0.75
0.0 0.625 0.75
0.0 0.75 0.75
0.0 0.875 0.75
0.0 1.0 0.75
0.125 0.0 0.75
0.125 0.125 0.75
0.125 0.25 0.75
0.125 0.375 0.75
0.125 0.5 0.75
0.125 0.625 0.75
0.125 0.75 0.75
0.125 0.875 0.75
0.125 1.0 0.75
0.25 0.0 0.75
0.25 0.125 0.75
0.25 0.25 0.75
0.25 0.375 0.75
0.25 0.5 0.75
0.25 0.625 0.75
0.25 0.75 0.75
0.25 0.875 0.75
0.25 1.0 0.75
0.375 0.0 0.75
0.375 0.125 0.75
0.375 0.25 0.75
0.375 0.375 0.75
0.375 0.5 0.75
0.375 0.625 0.75
0.375 0.75 0.75
0.375 0.875 0.75
0.375 1.0 0.75
0.5 0.0 0.75
0.5 0.125 0.75
0.5 0.25 0.75
0.5 0.375 0.75
0.5 0.5 0.75
0.5 0.625 0.75
0.5 0.75 0.75
0.5 0.875 0.75
0.5 1.0 0.75
0.625 0.0 0.75
0.625 0.125 0.75
0.625 0.25 0.75
0.625 0.375 0.75
0.625 0.5 0.75
0.625 0.625 0.75
0.625 0.75 0.75
0.625 0.875 0.75
0.625 1.0 0.75
0.75 0.0 0.75
0.75 0.125 0.75
0.75 0.25 0.75
0.75 0.375 0.75
0.75 0.5 0.75
0.75 0.625 0.75
0.75 0.75 0.75
0.75 0.875 0.75
0.75 1.0 0.75
0.875 0.0 0.75
0.875 0.125 0.75
0.875 0.25 0.75
0.875 0.375 0.75
0.875 0.5 0.75
0.875 0.625 0.75
0.875 0.75 0.75
0.875 0.875 0.75
0.875 1.0 0.75
1.0 0.0 0.75
1.0 0.125 0.75
1.0 0.25 0.75
1.0 0.375 0.75
1.0 0.5 0.75
1.0 0.625 0.75
1.0 0.75 0.75
1.0 0.875 0.75
1.0 1.0 0.75
0.0 0.0 0.875
0.0 0.125 0.875
0.0 0.25 0.875
0.0 0.375 0.875
0.0 0.5 0.875
0.0 0.625 0.875
0.0 0.75 0.875
0.0 0.875 0.875
0.0 1.0 0.875
0.125 0.0 0.875
0.125 0.125 0.875
0.125 0.25 0.875
0.125 0.375 0.875
0.125 0.5 0.875
0.125 0.625 0.875
0.125 0.75 0.875
0.125 0.875 0.875
0.125 1.0 0.875
0.25 0.0 0.875
0.25 0.125 0.875
0.25 0.25 0.875
0.25 0.375 0.875
0.25 0.5 0.875
0.25 0.625 0.875
0.25 0.75 0.875
0.25 0.875 0.875
0.25 1.0 0.875
0.375 0.0 0.875
0.375 0.125 0.875
0.375 0.25 0.875
0.375 0.375 0.875
0.375 0.5 0.875
0.375 0.625 0.875
0.375 0.75 0.875
0.375 0.875 0.875
0.375 1.0 0.875
0.5 0.0 0.875
0.5 0.125 0.875
0.5 0.25 0.875
0.5 0.375 0.875
0.5 0.5 0.875
0.5 0.625 0.875
0.5 0.75 0.875
0.5 0.875 0.875
0.5 1.0 0.875
0.625 0.0 0.875
0.625 0.125 0.875
0.625 0.25 0.875
0.625 0.375 0.875
0.625 0.5 0.875
0.625 0.625 0.875
0.625 0.75 0.875
0.625 0.875 0.875
0.625 1.0 0.875
0.75 0.0 0.875
0.75 0.125 0.875
0.75 0.25 0.875
0.75 0.375 0.875
0.75 0.5 0.875
0.75 0.625 0.875
0.75 0.75 0.875
0.75 0.875 0.875
0.75 1.0 0.875
0.875 0.0 0.875
0.875 0.125 0.875
0.875 0.25 0.875
0.875 0.375 0.875
0.875 0.5 0.875
0.875 0.625 0.875
0.875 0.75 0.875
0.875 0.875 0.875
0.875 1.0 0.875
[...]
CELL_DATA 512
SCALARS Temperature double
LOOKUP_TABLE default
4.028385099916217
4.5648158892114115
5.17263811229623
5.861373639002889
6.64179956764003
7.526122092507262
8.528164394609131
9.663565334029528
4.564815889222304
5.172765401184292
5.861578646545126
6.642057998367137
7.52641796495937
8.528483859293672
9.663900490681312
10.950347567465386
5.1726381123018195
5.861578646536727
6.642138826713261
7.526558315329415
8.528677861441624
9.664159893852995
10.950724479396229
12.408403376374492
5.861373638993387
6.642057998364262
7.526558315335178
8.528743197551362
9.66429574772794
10.950962531794994
12.40882156170601
14.060572307761223
6.641799567643815
7.526417964960991
8.528677861445425
9.664295747734222
10.951043952452327
12.409032783485511
14.061013739205983
15.932707426408136
7.526122092519707
8.528483859290306
9.664159893842111
10.950962531791287
12.409032783482127
14.061162226459103
15.933134830162945
18.05409319680556
8.528164394614599
9.663900490679472
10.95072447938425
12.408821561696744
14.061013739201485
15.933134830168946
18.054419717667503
20.4578971671114
9.663565334035503
10.95034756747073
12.408403376372629
14.060572307762198
15.9327074264096
18.05409319681119
20.457897167112208
23.181646157477573
4.564815889221123
5.172765401180814
5.861578646527619
6.642057998366194
7.5264179649634295
8.528483859286242
9.66390049068735
10.95034756747652
5.172765401188354
5.861913744852904
6.642608115011591
7.527115757075408
8.529282901500663
9.664758395682375
10.951220256499093
12.408609728824601
5.861578646543574
6.6426081150108285
7.52734229787186
8.529678674323282
9.665306094277593
10.951946601946014
12.409611488751628
14.060891907862366
6.642057998363517
7.527115757075974
8.52967867432318
9.665492510230528
10.952333555703248
12.41027989792531
14.06200319761766
15.933104062623897
7.526417964963775
8.529282901501254
9.665306094278035
10.952333555702971
12.410511455934834
14.062593582088006
15.934270658832084
18.05454834905594
8.528483859294372
9.664758395680826
10.951946601945496
12.410279897923768
14.06259358208635
15.934681241655923
18.055663143589715
20.458399370433174
9.663900490681222
10.951220256496308
12.409611488748727
14.062003197616471
15.934270658829206
18.055663143585587
20.459224788289273
23.1822067544416
10.95034756747393
12.4086097288215
14.060891907862546
15.93310406262612
18.05454834906827
20.45839937044441
23.1822067544361
26.268406342068957
5.172638112302804
5.86157864653967
6.642138826700588
7.526558315323223
8.52867786144271
9.664159893853732
10.950724479395534
12.408403376379692
5.861578646535326
6.6426081150099705
7.52734229787109
8.52967867432282
9.665306094278614
10.951946601948087
12.409611488753345
14.060891907867841
6.6421388267035235
7.527342297870377
8.530013993672561
9.665896406559202
10.952764748940035
12.410685208245209
14.062305250629793
15.933217709125719
7.526558315330171
8.529678674321676
9.665896406558911
10.953046828743098
12.411269555290149
14.063297167976522
15.93478653640731
18.054740356871033
8.52867786145033
9.665306094277144
10.952764748939302
12.411269555289802
14.063646229985546
15.935657716872136
18.0563776333336
20.4586648260498
9.66415989384921
10.951946601945648
12.410685208243986
14.06329716797573
15.935657716871424
18.056975292482058
20.460207709903596
23.182577392066285
10.950724479392294
12.409611488750162
14.062305250629429
15.934786536405976
18.05637763333286
20.46020770990252
23.183686748430866
26.269013301839653
12.408403376377732
14.060891907860215
15.933217709115848
18.05474035688359
20.458664826058772
23.182577392062342
26.269013301834804
29.766053730726835
5.861373638999598
6.642057998362206
7.526558315325923
8.528743197547687
9.664295747731348
10.950962531815007
12.408821561712845
14.060572307761765
6.642057998365049
7.5271157570751726
8.529678674322705
9.66549251023078
10.952333555705016
12.410279897926348
14.062003197621456
15.933104062618517
7.5265583153294475
8.529678674321994
9.665896406559053
10.953046828743325
12.411269555290437
14.063297167977161
15.934786536405454
18.05474035689821
8.528743197549947
9.665492510230138
10.953046828742842
12.411612263328479
14.06400711389202
15.935984205632982
18.056609192804224
20.458749072563435
9.664295747738189
10.952333555702289
12.41126955528981
14.06400711389167
15.936408248910398
18.057659082800036
20.460696093077164
23.18275581820661
10.95096253179118
12.410279897924582
14.06329716797589
15.935984205632453
18.057659082799518
20.461412528419338
23.18458243055959
26.26934950629821
12.408821561698126
14.062003197617404
15.934786536406147
18.05660919280243
20.46069609307672
23.184582430560358
26.270652999535187
29.766726543860976
14.060572307765195
15.933104062629427
18.054740356883315
20.458749072574815
23.182755818208616
26.269349506275038
29.766726543865538
33.72937057763635
6.641799567642222
7.526417964962427
8.528677861443803
9.664295747738892
10.951043952454619
12.409032783493654
14.061013739223267
15.932707426409447
7.526417964959565
8.529282901501265
9.665306094278598
10.952333555703547
12.41051145593655
14.062593582089548
15.934270658832052
18.054548349047113
8.528677861444333
9.66530609427852
10.952764748939849
12.411269555290435
14.063646229986205
15.935657716872509
18.056377633333593
20.458664826053155
9.664295747742301
10.952333555702493
12.411269555290245
14.064007113891996
15.936408248910688
18.057659082800253
20.46069609307705
23.18275581820919
10.951043952448021
12.410511455935778
14.063646229985624
15.936408248910432
18.058108713068673
20.461824441160164
23.184878305170656
26.26945797978604
12.40903278348077
14.062593582088134
15.93565771687172
18.05765908279962
20.461824441159784
23.185654687239353
26.271460183946065
29.767031947474642
14.061013739215866
15.934270658829934
18.05637763333305
20.460696093076038
23.184878305169065
26.271460183944587
29.768470774636647
33.73009170887264
15.932707426405425
18.054548349053366
20.458664826046213
23.182755818206623
26.269457979791774
29.76703194747343
33.73009170886981
38.22037386485963
7.526122092511287
8.528483859293914
9.66415989385481
10.950962531798142
12.409032783483024
14.061162226453384
15.933134830176527
18.054093196809358
8.528483859290855
9.6647583956826
10.95194660194679
12.410279897925502
14.062593582088313
15.934681241658334
18.055663143587413
20.45839937042802
9.664159893845266
10.951946601947721
12.410685208244974
14.063297167976787
15.935657716872488
18.056975292482498
20.46020770990314
23.182577392055205
10.950962531801785
12.410279897924502
14.063297167976806
15.935984205633172
18.057659082800186
20.46141252841969
23.184582430561015
26.269349506278484
12.409032783479283
14.062593582088416
15.935657716872173
18.057659082800004
20.461824441160203
23.18565468723974
26.271460183945834
29.76703194746971
14.061162226457022
15.934681241657751
18.05697529248206
20.461412528419203
23.185654687239253
26.27221460572082
29.76905437870598
33.73031640146589
15.933134830183551
18.05566314358718
20.460207709902228
23.184582430559512
26.271460183945234
29.769054378704794
33.73180307084088
38.22109388048359
18.054093196805372
20.458399370420516
23.182577392053112
26.269349506279
29.767031947467377
33.73031640146714
38.221093880476566
43.30931820141934
8.528164394608357
9.663900490680897
10.95072447939605
12.408821561701647
14.061013739202025
15.933134830166505
18.054419717671333
20.457897167109273
9.663900490686139
10.951220256498184
12.409611488750834
14.062003197618704
15.934270658831121
18.055663143587662
20.459224788288893
23.182206754432816
10.950724479397763
12.409611488750967
14.062305250630915
15.93478653640701
18.056377633333717
20.46020770990323
23.183686748428833
26.269013301843174
12.408821561699668
14.062003197618925
15.934786536406978
18.056609192803485
20.46069609307754
23.18458243056071
26.2706529995338
29.766726543873727
14.061013739203677
15.934270658830929
18.05637763333367
20.46069609307746
23.184878305169992
26.27146018394571
29.768470774637294
33.730091708873246
15.93313483016788
18.05566314358806
20.460207709902967
23.18458243056035
26.271460183945425
29.769054378705412
33.73180307084144
38.221093880479195
18.054419717672285
20.459224788288896
23.18368674842816
26.270652999533084
29.76847077463656
33.7318030708409
38.22241344991238
43.309896894770304
20.457897167110673
23.182206754432862
26.26901330184384
29.766726543873528
33.730091708872436
38.22109388047879
43.309896894770255
49.07578192759327
9.663565334030418
10.950347567472006
12.408403376374913
14.06057230775794
15.932707426408221
18.054093196812094
20.457897167110414
23.181646157473452
10.950347567472681
12.408609728827848
14.060891907864047
15.933104062622782
18.054548349059182
20.458399370433963
23.182206754435896
26.268406342065724
12.40840337637949
14.060891907864047
15.93321770911728
18.05474035688573
20.458664826050196
23.182577392054696
26.269013301843515
29.766053730716372
14.06057230775943
15.933104062622643
18.054740356885766
20.458749072579582
23.182755818206125
26.269349506277408
29.76672654387386
33.72937057762764
15.93270742640846
18.054548349059175
20.45866482605018
23.18275581820611
26.269457979791255
29.767031947470866
33.730091708872976
38.220373864863696
18.054093196812335
20.458399370433995
23.182577392054633
26.269349506277294
29.767031947470763
33.730316401466176
38.22109388047904
43.309318201424674
20.457897167111142
23.182206754435803
26.269013301843316
29.766726543873627
33.73009170887271
38.22109388047888
43.30989689477008
49.0757819275937
23.181646157473146
26.26840634206598
29.766053730716898
33.72937057762737
38.220373864863376
43.309318201424695
49.07578192759381
55.60981197253997
