# vtk DataFile Version 3.0
Generated by easyPDE
ASCII
DATASET UNSTRUCTURED_GRID
POINTS 729 double
0.0 0.0 0.0
0.0 0.125 0.0
0.0 0.25 0.0
0.0 0.375 0.0
0.0 0.5 0.0
0.0 0.625 0.0
0.0 0.75 0.0
0.0 0.875 0.0
0.0 1.0 0.0
0.125 0.0 0.0
0.125 0.125 0.0
0.125 0.25 0.0
0.125 0.375 0.0
0.125 0.5 0.0
0.125 0.625 0.0
0.125 0.75 0.0
0.125 0.875 0.0
0.125 1.0 0.0
0.25 0.0 0.0
0.25 0.125 0.0
0.25 0.25 0.0
0.25 0.375 0.0
0.25 0.5 0.0
0.25 0.625 0.0
0.25 0.75 0.0
0.25 0.875 0.0
0.25 1.0 0.0
0.375 0.0 0.0
0.375 0.125 0.0
0.375 0.25 0.0
0.375 0.375 0.0
0.375 0.5 0.0
0.375 0.625 0.0
0.375 0.75 0.0
0.375 0.875 0.0
0.375 1.0 0.0
0.5 0.0 0.0
0.5 0.125 0.0
0.5 0.25 0.0
0.5 0.375 0.0
0.5 0.5 0.0
0.5 0.625 0.0
0.5 0.75 0.0
0.5 0.875 0.0
0.5 1.0 0.0
0.625 0.0 0.0
0.625 0.125 0.0
0.625 0.25 0.0
0.625 0.375 0.0
0.625 0.5 0.0
0.625 0.625 0.0
0.625 0.75 0.0
0.625 0.875 0.0
0.625 1.0 0.0
0.75 0.0 0.0
0.75 0.125 0.0
0.75 0.25 0.0
0.75 0.375 0.0
0.75 0.5 0.0
0.75 0.625 0.0
0.75 0.75 0.0
0.75 0.875 0.0
0.75 1.0 0.0
0.875 0.0 0.0
0.875 0.125 0.0
0.875 0.25 0.0
0.875 0.375 0.0
0.875 0.5 0.0
0.875 0.625 0.0
0.875 0.75 0.0
0.875 0.875 0.0
0.875 1.0 0.0
1.0 0.0 0.0
1.0 0.125 0.0
1.0 0.25 0.0
1.0 0.375 0.0
1.0 0.5 0.0
1.0 0.625 0.0
1.0 0.75 0.0
1.0 0.875 0.0
1.0 1.0 0.0
0.0 0.0 0.125
0.0 0.125 0.125
0.0 0.25 0.125
0.0 0.375 0.125
0.0 0.5 0.125
0.0 0.625 0.125
0.0 0.75 0.125
0.0 0.875 0.125
0.0 1.0 0.125
0.125 0.0 0.125
0.125 0.125 0.125
0.125 0.25 0.125
0.125 0.375 0.125
0.125 0.5 0.125
0.125 0.625 0.125
0.125 0.75 0.125
0.125 0.875 0.125
0.125 1.0 0.125
0.25 0.0 0.125
0.25 0.125 0.125
0.25 0.25 0.125
0.25 0.375 0.125
0.25 0.5 0.125
0.25 0.625 0.125
0.25 0.75 0.125
0.25 0.875 0.125
0.25 1.0 0.125
0.375 0.0 0.125
0.375 0.125 0.125
0.375 0.25 0.125
0.375 0.375 0.125
0.375 0.5 0.125
0.375 0.625 0.125
0.375 0.75 0.125
0.375 0.875 0.125
0.375 1.0 0.125
0.5 0.0 0.125
0.5 0.125 0.125
0.5 0.25 0.125
0.5 0.375 0.125
0.5 0.5 0.125
0.5 0.625 0.125
0.5 0.75 0.125
0.5 0.875 0.125
0.5 1.0 0.125
0.625 0.0 0.125
0.625 0.125 0.125
0.625 0.25 0.125
0.625 0.375 0.125
0.625 0.5 0.125
0.625 0.625 0.125
0.625 0.75 0.125
0.625 0.875 0.125
0.625 1.0 0.125
0.75 0.0 0.125
0.75 0.125 0.125
0.75 0.25 0.125
0.75 0.375 0.125
0.75 0.5 0.125
0.75 0.625 0.125
0.75 0.75 0.125
0.75 0.875 0.125
0.75 1.0 0.125
0.875 0.0 0.125
0.875 0.125 0.125
0.875 0.25 0.125
0.875 0.375 0.125
0.875 0.5 0.125
0.875 0.625 0.125
0.875 0.75 0.125
0.875 0.875 0.125
0.875 1.0 0.125
1.0 0.0 0.125
1.0 0.125 0.125
1.0 0.25 0.125
1.0 0.375 0.125
1.0 0.5 0.125
1.0 0.625 0.125
1.0 0.75 0.125
1.0 0.875 0.125
1.0 1.0 0.125
0.0 0.0 0.25
0.0 0.125 0.25
0.0 0.25 0.25
0.0 0.375 0.25
0.0 0.5 0.25
0.0 0.625 0.25
0.0 0.75 0.25
0.0 0.875 0.25
0.0 1.0 0.25
0.125 0.0 0.25
0.125 0.125 0.25
0.125 0.25 0.25
0.125 0.375 0.25
0.125 0.5 0.25
0.125 0.625 0.25
0.125 0.75 0.25
0.125 0.875 0.25
0.125 1.0 0.25
0.25 0.0 0.25
0.25 0.125 0.25
0.25 0.25 0.25
0.25 0.375 0.25
0.25 0.5 0.25
0.25 0.625 0.25
0.25 0.75 0.25
0.25 0.875 0.25
0.25 1.0 0.25
0.375 0.0 0.25
0.375 0.125 0.25
0.375 0.25 0.25
0.375 0.375 0.25
0.375 0.5 0.25
0.375 0.625 0.25
0.375 0.75 0.25
0.375 0.875 0.25
0.375 1.0 0.25
0.5 0.0 0.25
0.5 0.125 0.25
0.5 0.25 0.25
0.5 0.375 0.25
0.5 0.5 0.25
0.5 0.625 0.25
0.5 0.75 0.25
0.5 0.875 0.25
0.5 1.0 0.25
0.625 0.0 0.25
0.625 0.125 0.25
0.625 0.25 0.25
0.625 0.375 0.25
0.625 0.5 0.25
0.625 0.625 0.25
0.625 0.75 0.25
0.625 0.875 0.25
0.625 1.0 0.25
0.75 0.0 0.25
0.75 0.125 0.25
0.75 0.25 0.25
0.75 0.375 0.25
0.75 0.5 0.25
0.75 0.625 0.25
0.75 0.75 0.25
0.75 0.875 0.25
0.75 1.0 0.25
0.875 0.0 0.25
0.875 0.125 0.25
0.875 0.25 0.25
0.875 0.375 0.25
0.875 0.5 0.25
0.875 0.625 0.25
0.875 0.75 0.25
0.875 0.875 0.25
0.875 1.0 0.25
1.0 0.0 0.25
1.0 0.125 0.25
1.0 0.25 0.25
1.0 0.375 0.25
1.0 0.5 0.25
1.0 0.625 0.25
1.0 0.75 0.25
1.0 0.875 0.25
1.0 1.0 0.25
0.0 0.0 0.375
0.0 0.125 0.375
0.0 0.25 0.375
0.0 0.375 0.375
0.0 0.5 0.375
0.0 0.625 0.375
0.0 0.75 0.375
0.0 0.875 0.375
0.0 1.0 0.375
0.125 0.0 0.375
0.125 0.125 0.375
0.125 0.25 0.375
0.125 0.375 0.375
0.125 0.5 0.375
0.125 0.625 0.375
0.125 0.75 0.375
0.125 0.875 0.375
0.125 1.0 0.375
0.25 0.0 0.375
0.25 0.125 0.375
0.25 0.25 0.375
0.25 0.375 0.375
0.25 0.5 0.375
0.25 0.625 0.375
0.25 0.75 0.375
0.25 0.875 0.375
0.25 1.0 0.375
0.375 0.0 0.375
0.375 0.125 0.375
0.375 0.25 0.375
0.375 0.375 0.375
0.375 0.5 0.375
0.375 0.625 0.375
0.375 0.75 0.375
0.375 0.875 0.375
0.375 1.0 0.375
0.5 0.0 0.375
0.5 0.125 0.375
0.5 0.25 0.375
0.5 0.375 0.375
0.5 0.5 0.375
0.5 0.625 0.375
0.5 0.75 0.375
0.5 0.875 0.375
0.5 1.0 0.375
0.625 0.0 0.375
0.625 0.125 0.375
0.625 0.25 0.375
0.625 0.375 0.375
0.625 0.5 0.375
0.625 0.625 0.375
0.625 0.75 0.375
0.625 0.875 0.375
0.625 1.0 0.375
0.75 0.0 0.375
0.75 0.125 0.375
0.75 0.25 0.375
0.75 0.375 0.375
0.75 0.5 0.375
0.75 0.625 0.375
0.75 0.75 0.375
0.75 0.875 0.375
0.75 1.0 0.375
0.875 0.0 0.375
0.875 0.125 0.375
0.875 0.25 0.375
0.875 0.375 0.375
0.875 0.5 0.375
0.875 0.625 0.375
0.875 0.75 0.375
0.875 0.875 0.375
0.875 1.0 0.375
1.0 0.0 0.375
1.0 0.125 0.375
1.0 0.25 0.375
1.0 0.375 0.375
1.0 0.5 0.375
1.0 0.625 0.375
1.0 0.75 0.375
1.0 0.875 0.375
1.0 1.0 0.375
0.0 0.0 0.5
0.0 0.125 0.5
0.0 0.25 0.5
0.0 0.375 0.5
0.0 0.5 0.5
0.0 0.625 0.5
0.0 0.75 0.5
0.0 0.875 0.5
0.0 1.0 0.5
0.125 0.0 0.5
0.125 0.125 0.5
0.125 0.25 0.5
0.125 0.375 0.5
0.125 0.5 0.5
0.125 0.625 0.5
0.125 0.75 0.5
0.125 0.875 0.5
0.125 1.0 0.5
0.25 0.0 0.5
0.25 0.125 0.5
0.25 0.25 0.5
0.25 0.375 0.5
0.25 0.5 0.5
0.25 0.625 0.5
0.25 0.75 0.5
0.25 0.875 0.5
0.25 1.0 0.5
0.375 0.0 0.5
0.375 0.125 0.5
0.375 0.25 0.5
0.375 0.375 0.5
0.375 0.5 0.5
0.375 0.625 0.5
0.375 0.75 0.5
0.375 0.875 0.5
0.375 1.0 0.5
0.5 0.0 0.5
0.5 0.125 0.5
0.5 0.25 0.5
0.5 0.375 0.5
0.5 0.5 0.5
0.5 0.625 0.5
0.5 0.75 0.5
0.5 0.875 0.5
0.5 1.0 0.5
0.625 0.0 0.5
0.625 0.125 0.5
0.625 0.25 0.5
0.625 0.375 0.5
0.625 0.5 0.5
0.625 0.625 0.5
0.625 0.75 0.5
0.625 0.875 0.5
0.625 1.0 0.5
0.75 0.0 0.5
0.75 0.125 0.5
0.75 0.25 0.5
0.75 0.375 0.5
0.75 0.5 0.5
0.75 0.625 0.5
0.75 0.75 0.5
0.75 0.875 0.5
0.75 1.0 0.5
0.875 0.0 0.5
0.875 0.125 0.5
0.875 0.25 0.5
0.875 0.375 0.5
0.875 0.5 0.5
0.875 0.625 0.5
0.875 0.75 0.5
0.875 0.875 0.5
0.875 1.0 0.5
1.0 0.0 0.5
1.0 0.125 0.5
1.0 0.25 0.5
1.0 0.375 0.5
1.0 0.5 0.5
1.0 0.625 0.5
1.0 0.75 0.5
1.0 0.875 0.5
1.0 1.0 0.5
0.0 0.0 0.625
0.0 0.125 0.625
0.0 0.25 0.625
0.0 0.375 0.625
0.0 0.5 0.625
0.0 0.625 0.625
0.0 0.75 0.625
0.0 0.875 0.625
0.0 1.0 0.625
0.125 0.0 0.625
0.125 0.125 0.625
0.125 0.25 0.625
0.125 0.375 0.625
0.125 0.5 0.625
0.125 0.625 0.625
0.125 0.75 0.625
0.125 0.875 0.625
0.125 1.0 0.625
0.25 0.0 0.625
0.25 0.125 0.625
0.25 0.25 0.625
0.25 0.375 0.625
0.25 0.5 0.625
0.25 0.625 0.625
0.25 0.75 0.625
0.25 0.875 0.625
0.25 1.0 0.625
0.375 0.0 0.625
0.375 0.125 0.625
0.375 0.25 0.625
0.375 0.375 0.625
0.375 0.5 0.625
0.375 0.625 0.625
0.375 0.75 0.625
0.375 0.875 0.625
0.375 1.0 0.625
0.5 0.0 0.625
0.5 0.125 0.625
0.5 0.25 0.625
0.5 0.375 0.625
0.5 0.5 0.625
0.5 0.625 0.625
0.5 0.75 0.625
0.5 0.875 0.625
0.5 1.0 0.625
0.625 0.0 0.625
0.625 0.125 0.625
0.625 0.25 0.625
0.625 0.375 0.625
0.625 0.5 0.625
0.625 0.625 0.625
0.625 0.75 0.625
0.625 0.875 0.625
0.625 1.0 0.625
0.75 0.0 0.625
0.75 0.125 0.625
0.75 0.25 0.625
0.75 0.375 0.625
0.75 0.5 0.625
0.75 0.625 0.625
0.75 0.75 0.625
0.75 0.875 0.625
0.75 1.0 0.625
0.875 0.0 0.625
0.875 0.125 0.625
0.875 0.25 0.625
0.875 0.375 0.625
0.875 0.5 0.625
0.875 0.625 0.625
0.875 0.75 0.625
0.875 0.875 0.625
0.875 1.0 0.625
1.0 0.0 0.625
1.0 0.125 0.625
1.0 0.25 0.625
1.0 0.375 0.625
1.0 0.5 0.625
1.0 0.625 0.625
1.0 0.75 0.625
1.0 0.875 0.625
1.0 1.0 0.625
0.0 0.0 0.75
0.0 0.125 0.75
0.0 0.25 0.75
0.0 0.375 0.75
0.0 0.5 0.75
0.0 0.625 0.75
0.0 0.75 0.75
0.0 0.875 0.75
0.0 1.0 0.75
0.125 0.0 0.75
0.125 0.125 0.75
0.125 0.25 0.75
0.125 0.375 0.75
0.125 0.5 0.75
0.125 0.625 0.75
0.125 0.75 0.75
0.125 0.875 0.75
0.125 1.0 0.75
0.25 0.0 0.75
0.25 0.125 0.75
0.25 0.25 0.75
0.25 0.375 0.75
0.25 0.5 0.75
0.25 0.625 0.75
0.25 0.75 0.75
0.25 0.875 0.75
0.25 1.0 0.75
0.375 0.0 0.75
0.375 0.125 0.75
0.375 0.25 0.75
0.375 0.375 0.75
0.375 0.5 0.75
0.375 0.625 0.75
0.375 0.75 0.75
0.375 0.875 0.75
0.375 1.0 0.75
0.5 0.0 0.75
0.5 0.125 0.75
0.5 0.25 0.75
0.5 0.375 0.75
0.5 0.5 0.75
0.5 0.625 0.75
0.5 0.75 0.75
0.5 0.875 0.75
0.5 1.0 0.75
0.625 0.0 0.75
0.625 0.125 0.75
0.625 0.25 0.75
0.625 0.375 0.75
0.625 0.5 0.75
0.625 0.625 0.75
0.625 0.75 0.75
0.625 0.875 0.75
0.625 1.0 0.75
0.75 0.0 0.75
0.75 0.125 0.75
0.75 0.25 0.75
0.75 0.375 0.75
0.75 0.5 0.75
0.75 0.625 0.75
0.75 0.75 0.75
0.75 0.875 0.75
0.75 1.0 0.75
0.875 0.0 0.75
0.875 0.125 0.75
0.875 0.25 0.75
0.875 0.375 0.75
0.875 0.5 0.75
0.875 0.625 0.75
0.875 0.75 0.75
0.875 0.875 0.75
0.875 1.0 0.75
1.0 0.0 0.75
1.0 0.125 0.75
1.0 0.25 0.75
1.0 0.375 0.75
1.0 0.5 0.75
1.0 0.625 0.75
1.0 0.75 0.75
1.0 0.875 0.75
1.0 1.0 0.75
0.0 0.0 0.875
0.0 0.125 0.875
0.0 0.25 0.875
0.0 0.375 0.875
0.0 0.5 0.875
0.0 0.625 0.875
0.0 0.75 0.875
0.0 0.875 0.875
0.0 1.0 0.875
0.125 0.0 0.875
0.125 0.125 0.875
0.125 0.25 0.875
0.125 0.375 0.875
0.125 0.5 0.875
0.125 0.625 0.875
0.125 0.75 0.875
0.125 0.875 0.875
0.125 1.0 0.875
0.25 0.0 0.875
0.25 0.125 0.875
0.25 0.25 0.875
0.25 0.375 0.875
0.25 0.5 0.875
0.25 0.625 0.875
0.25 0.75 0.875
0.25 0.875 0.875
0.25 1.0 0.875
0.375 0.0 0.875
0.375 0.125 0.875
0.375 0.25 0.875
0.375 0.375 0.875
0.375 0.5 0.875
0.375 0.625 0.875
0.375 0.75 0.875
0.375 0.875 0.875
0.375 1.0 0.875
0.5 0.0 0.875
0.5 0.125 0.875
0.5 0.25 0.875
0.5 0.375 0.875
0.5 0.5 0.875
0.5 0.625 0.875
0.5 0.75 0.875
0.5 0.875 0.875
0.5 1.0 0.875
0.625 0.0 0.875
0.625 0.125 0.875
0.625 0.25 0.875
0.625 0.375 0.875
0.625 0.5 0.875
0.625 0.625 0.875
0.625 0.75 0.875
0.625 0.875 0.875
0.625 1.0 0.875
0.75 0.0 0.875
0.75 0.125 0.875
0.75 0.25 0.875
0.75 0.375 0.875
0.75 0.5 0.875
0.75 0.625 0.875
0.75 0.75 0.875
0.75 0.875 0.875
0.75 1.0 0.875
0.875 0.0 0.875
0.875 0.125 0.875
0.875 0.25 0.875
0.875 0.375 0.875
0.875 0.5 0.875
0.875 0.625 0.875
0.875 0.75 0.875
0.875 0.875 0.875
0.875 1.0 0.875
[...]
CELL_DATA 512
SCALARS Temperature double
LOOKUP_TABLE default
8.112173467017406
9.192413552444597
10.416416669704226
11.803360381619736
13.374945604108799
15.155752313587216
17.1736206949904
19.460035768676352
9.192413552401485
10.416674610710627
11.803772790940151
13.375466409659202
15.156349097611404
17.174260970127193
19.460714917841223
22.051299943571397
10.416416669663349
11.803772790919592
13.375626411600596
15.1566298664138
17.174650981680173
19.46122916757661
22.052057627173983
24.987462713525375
11.803360381636612
13.375466409650887
15.156629866410821
17.174784123475927
19.461506508925314
22.052533175708312
24.988306812478047
28.314523879868545
13.374945604128484
15.156349097630507
17.174650981688416
19.461506508914326
22.0526995431506
24.98872611298832
28.315414161917253
32.08454204329687
15.155752313572595
17.174260970136096
19.461229167573464
22.052533175684392
24.988726112951802
28.315703447345527
32.08540152623861
36.356488337181254
17.173620694974247
19.460714917816922
22.052057627156334
24.98830681247445
28.315414161887613
32.08540152620463
36.35715585602102
41.19716180604014
19.4600357686847
22.05129994356549
24.98746271351736
28.314523879880525
32.08454204331173
36.356488337182
41.197161806034586
46.68211427875234
9.192413552424291
10.41667461072489
11.803772790945057
13.37546640964859
15.156349097627494
17.174260970137237
19.460714917822802
22.051299943560295
10.41667461070174
11.8044484694735
13.37657057188854
15.1577524218018
17.175869206324705
19.462432275276235
22.053058705306906
24.987882776003538
11.80377279091847
13.37657057189049
15.158202864432571
17.176663030432866
19.463535258812616
22.054505233745743
24.989891575031965
28.315167672414212
13.37546640965903
15.157752421803718
17.17666303043248
19.463914798366854
22.055294262784223
24.991231088742147
28.317403724416685
32.08534259033751
15.156349097639039
17.17586920632463
19.46353525880956
22.05529426278198
24.991703596883816
28.318580837515647
32.08768747577173
36.35740793246916
17.17426097012686
19.462432275273446
22.05450523373919
24.991231088736885
28.318580837514645
32.088493562742265
36.35964112202245
41.19816795913975
19.46071491781
22.053058705304053
24.98989157502776
28.31740372440904
32.08768747576893
36.35964112202377
41.199840783315295
46.68325530804026
22.05129994357339
24.987882776008348
28.315167672402723
32.085342590333276
36.357407932458685
41.19816795913755
46.68325530804393
52.898093480270354
10.416416669677325
11.803772790936653
13.375626411583884
15.156629866403732
17.17465098170115
19.461229167587412
22.05205762718072
24.987462713511686
11.803772790913804
13.37657057188962
15.15820286443049
17.17666303043166
19.46353525881332
22.054505233747026
24.989891575032523
28.315167672405515
13.375626411609641
15.158202864432425
17.17733227677057
19.46472193880687
22.05615548673764
24.992038257729465
28.31800086744191
32.085565453526655
15.156629866423899
17.17666303043581
19.464721938806633
22.056729373484256
24.993228800041447
28.31999428377768
32.08871941083045
36.35779013840506
17.1746509816947
19.463535258814357
22.056155486736483
24.993228800040477
28.3207059587843
32.09046302711043
36.36107807176924
41.19870013552237
19.46122916758511
22.054505233742645
24.992038257727582
28.319994283775767
32.090463027108854
36.36225909408502
41.20178745824313
46.68398340688881
22.05205762715597
24.989891575030338
28.318000867440144
32.08871941082747
36.361078071766386
41.20178745823992
46.686220953325915
52.89931502487974
24.98746271352164
28.315167672410436
32.085565453526456
36.357790138395195
41.19870013546189
46.68398340685333
52.89931502489037
59.94148827646902
11.803360381631588
13.375466409671494
15.156629866389787
17.174784123475433
19.461506508967595
22.052533175703623
24.98830681248297
28.314523879884415
13.375466409638866
15.157752421801266
17.17666303043225
19.46391479836692
22.055294262784507
24.99123108874707
28.31740372441556
32.085342590348105
15.15662986643577
17.176663030432394
19.464721938806615
22.056729373484526
24.993228800042168
28.319994283777707
32.08871941083257
36.35779013837518
17.17478412350095
19.463914798368094
22.05672937348449
24.99392607132188
28.321440881374222
32.091128986419875
36.361551454743186
41.19887269945641
19.461506508928725
22.055294262785473
24.993228800041067
28.321440881373757
32.09199368453743
36.363655704918635
41.20278737137575
46.684349623672006
22.05253317569936
24.99123108873989
28.319994283776666
32.091128986418575
36.363655704917576
41.204206053120274
46.68800962997669
52.89998261535097
24.98830681246025
28.317403724413612
32.08871941083135
36.361551454739796
41.202787371369965
46.68800962996974
52.90261449143964
59.94284944374683
28.314523879882326
32.08534259035709
36.35779013839463
41.19887269945764
46.68434962360645
52.89998261531599
59.94284944375363
67.92263167961795
13.374945604110719
15.156349097641055
17.174650981685595
19.461506508909007
22.052699543185508
24.988726112970753
28.31541416187611
32.084542043316475
15.156349097617797
17.17586920632532
19.463535258811458
22.055294262785797
24.991703596885266
28.318580837521207
32.08768747577446
36.35740793250119
17.174650981698015
19.463535258811433
22.056155486737477
24.99322880004152
28.32070595878571
32.09046302711096
36.361078071768574
41.19870013549183
19.46150650891607
22.055294262785583
24.993228800041297
28.321440881374343
32.091993684537925
36.36365570491873
41.20278737137547
46.68434962362573
22.052699543146627
24.991703596883937
28.320705958784885
32.09199368453756
36.364573353366154
41.20504781336022
46.68861573897761
52.9002054487993
24.988726112967367
28.318580837514254
32.09046302710995
36.36365570491761
41.20504781335903
46.690151434932424
52.904215418352024
59.94345056117071
28.315414161870827
32.08768747577173
36.36107807176841
41.202787371372224
46.68861573897218
52.90421541834847
59.94635508590022
67.92408929216589
32.08454204330525
36.3574079325044
41.19870013550531
46.68434962363256
52.90020544875802
59.943450561134824
67.92408929218418
76.96640421207351
15.155752313583612
17.17426097015607
19.461229167578747
22.052533175677798
24.98872611296715
28.315703447362438
32.08540152620982
36.35648833718784
17.174260970128874
19.46243227527683
22.054505233744823
24.991231088741824
28.318580837517583
32.08849356274338
36.35964112202527
41.19816795916789
19.461229167584932
22.054505233743814
24.992038257729792
28.31999428377785
32.09046302711084
36.36225909408629
41.20178745824173
46.68398340688096
22.05253317568556
24.991231088742605
28.31999428377766
32.091128986419925
36.3636557049188
41.20420605312142
46.688009629971795
52.89998261535245
24.98872611296185
28.318580837515793
32.0904630271105
36.363655704918536
41.20504781335984
46.69015143493307
52.90421541835215
59.94345056116293
28.31570344735283
32.08849356274136
36.362259094085495
41.20420605312033
46.690151434932304
52.905700382292224
59.94749028985052
67.92452076718571
32.08540152620144
36.3596411220237
41.20178745824079
46.688009629971276
52.904215418347675
59.94749028984895
67.92751642166597
76.96785519221152
36.35648833717769
41.19816795917142
46.68398340688727
52.89998261534504
59.94345056115818
67.92452076717282
76.96785519222722
87.2142802270875
17.173620695008047
19.46071491784424
22.05205762716248
24.9883068124716
28.315414161896232
32.08540152623621
36.35715585602151
41.19716180604223
19.460714917828753
22.05305870530983
24.989891575033827
28.31740372441331
32.08768747577167
36.35964112202297
41.19984078331527
46.68325530804947
22.052057627172584
24.989891575034402
28.318000867442183
32.08871941083237
36.36107807176927
41.20178745824133
46.68622095332959
52.89931502486453
24.98830681248933
28.317403724415158
32.088719410832425
36.36155145474417
41.20278737137452
46.68800962997235
52.90261449144315
59.94284944373886
28.315414161908247
32.08768747577221
36.36107807176921
41.202787371374356
46.688615738976296
52.90421541835029
59.94635508590198
67.92408929217139
32.085401526232054
36.35964112202362
41.20178745824096
46.688009629971795
52.90421541834975
59.947490289849675
67.92751642166594
76.96785519222064
36.35715585602177
41.199840783315324
46.68622095332894
52.90261449144261
59.946355085900706
67.92751642166539
76.97053706111855
87.21547133125975
41.197161806037904
46.68325530804504
52.89931502486854
59.942849443737636
67.9240892921722
76.96785519221966
87.21547133126018
98.826527207043
19.46003576868905
22.05129994356886
24.987462713523588
28.314523879884707
32.08454204330052
36.35648833717149
41.1971618060391
46.68211427875345
22.051299943567596
24.98788277600417
28.315167672407654
32.0853425903394
36.35740793247451
41.19816795914849
46.683255308040984
52.89809348026603
24.98746271352704
28.31516767240855
32.08556545353436
36.35779013839965
41.19870013550571
46.68398340689024
52.89931502487165
59.94148827647713
28.31452387989315
32.085342590340645
36.35779013839969
41.19887269946132
46.68434962363888
52.89998261535162
59.942849443738524
67.92263167962622
32.08454204330829
36.35740793247517
41.198700135505746
46.68434962363883
52.900205448765696
59.94345056115511
67.92408929217346
76.96640421206197
36.35648833717774
41.198167959148364
46.6839834068902
52.899982615351455
59.94345056115497
67.92452076717765
76.96785519222041
87.21428022707484
41.197161806038736
46.6832553080412
52.8993150248719
59.942849443738254
67.92408929217315
76.96785519222033
87.21547133126055
98.82652720704132
46.68211427875559
52.898093480266795
59.94148827647559
67.92263167962787
76.96640421206378
87.21428022707485
98.82652720704134
111.9844364270527
