# vtk DataFile Version 3.0
Generated by easyPDE
ASCII
DATASET UNSTRUCTURED_GRID
POINTS 729 double
0.0 0.0 0.0
0.0 0.125 0.0
0.0 0.25 0.0
0.0 0.375 0.0
0.0 0.5 0.0
0.0 0.625 0.0
0.0 0.75 0.0
0.0 0.875 0.0
0.0 1.0 0.0
0.125 0.0 0.0
0.125 0.125 0.0
0.125 0.25 0.0
0.125 0.375 0.0
0.125 0.5 0.0
0.125 0.625 0.0
0.125 0.75 0.0
0.125 0.875 0.0
0.125 1.0 0.0
0.25 0.0 0.0
0.25 0.125 0.0
0.25 0.25 0.0
0.25 0.375 0.0
0.25 0.5 0.0
0.25 0.625 0.0
0.25 0.75 0.0
0.25 0.875 0.0
0.25 1.0 0.0
0.375 0.0 0.0
0.375 0.125 0.0
0.375 0.25 0.0
0.375 0.375 0.0
0.375 0.5 0.0
0.375 0.625 0.0
0.375 0.75 0.0
0.375 0.875 0.0
0.375 1.0 0.0
0.5 0.0 0.0
0.5 0.125 0.0
0.5 0.25 0.0
0.5 0.375 0.0
0.5 0.5 0.0
0.5 0.625 0.0
0.5 0.75 0.0
0.5 0.875 0.0
0.5 1.0 0.0
0.625 0.0 0.0
0.625 0.125 0.0
0.625 0.25 0.0
0.625 0.375 0.0
0.625 0.5 0.0
0.625 0.625 0.0
0.625 0.75 0.0
0.625 0.875 0.0
0.625 1.0 0.0
0.75 0.0 0.0
0.75 0.125 0.0
0.75 0.25 0.0
0.75 0.375 0.0
0.75 0.5 0.0
0.75 0.625 0.0
0.75 0.75 0.0
0.75 0.875 0.0
0.75 1.0 0.0
0.875 0.0 0.0
0.875 0.125 0.0
0.875 0.25 0.0
0.875 0.375 0.0
0.875 0.5 0.0
0.875 0.625 0.0
0.875 0.75 0.0
0.875 0.875 0.0
0.875 1.0 0.0
1.0 0.0 0.0
1.0 0.125 0.0
1.0 0.25 0.0
1.0 0.375 0.0
1.0 0.5 0.0
1.0 0.625 0.0
1.0 0.75 0.0
1.0 0.875 0.0
1.0 1.0 0.0
0.0 0.0 0.125
0.0 0.125 0.125
0.0 0.25 0.125
0.0 0.375 0.125
0.0 0.5 0.125
0.0 0.625 0.125
0.0 0.75 0.125
0.0 0.875 0.125
0.0 1.0 0.125
0.125 0.0 0.125
0.125 0.125 0.125
0.125 0.25 0.125
0.125 0.375 0.125
0.125 0.5 0.125
0.125 0.625 0.125
0.125 0.75 0.125
0.125 0.875 0.125
0.125 1.0 0.125
0.25 0.0 0.125
0.25 0.125 0.125
0.25 0.25 0.125
0.25 0.375 0.125
0.25 0.5 0.125
0.25 0.625 0.125
0.25 0.75 0.125
0.25 0.875 0.125
0.25 1.0 0.125
0.375 0.0 0.125
0.375 0.125 0.125
0.375 0.25 0.125
0.375 0.375 0.125
0.375 0.5 0.125
0.375 0.625 0.125
0.375 0.75 0.125
0.375 0.875 0.125
0.375 1.0 0.125
0.5 0.0 0.125
0.5 0.125 0.125
0.5 0.25 0.125
0.5 0.375 0.125
0.5 0.5 0.125
0.5 0.625 0.125
0.5 0.75 0.125
0.5 0.875 0.125
0.5 1.0 0.125
0.625 0.0 0.125
0.625 0.125 0.125
0.625 0.25 0.125
0.625 0.375 0.125
0.625 0.5 0.125
0.625 0.625 0.125
0.625 0.75 0.125
0.625 0.875 0.125
0.625 1.0 0.125
0.75 0.0 0.125
0.75 0.125 0.125
0.75 0.25 0.125
0.75 0.375 0.125
0.75 0.5 0.125
0.75 0.625 0.125
0.75 0.75 0.125
0.75 0.875 0.125
0.75 1.0 0.125
0.875 0.0 0.125
0.875 0.125 0.125
0.875 0.25 0.125
0.875 0.375 0.125
0.875 0.5 0.125
0.875 0.625 0.125
0.875 0.75 0.125
0.875 0.875 0.125
0.875 1.0 0.125
1.0 0.0 0.125
1.0 0.125 0.125
1.0 0.25 0.125
1.0 0.375 0.125
1.0 0.5 0.125
1.0 0.625 0.125
1.0 0.75 0.125
1.0 0.875 0.125
1.0 1.0 0.125
0.0 0.0 0.25
0.0 0.125 0.25
0.0 0.25 0.25
0.0 0.375 0.25
0.0 0.5 0.25
0.0 0.625 0.25
0.0 0.75 0.25
0.0 0.875 0.25
0.0 1.0 0.25
0.125 0.0 0.25
0.125 0.125 0.25
0.125 0.25 0.25
0.125 0.375 0.25
0.125 0.5 0.25
0.125 0.625 0.25
0.125 0.75 0.25
0.125 0.875 0.25
0.125 1.0 0.25
0.25 0.0 0.25
0.25 0.125 0.25
0.25 0.25 0.25
0.25 0.375 0.25
0.25 0.5 0.25
0.25 0.625 0.25
0.25 0.75 0.25
0.25 0.875 0.25
0.25 1.0 0.25
0.375 0.0 0.25
0.375 0.125 0.25
0.375 0.25 0.25
0.375 0.375 0.25
0.375 0.5 0.25
0.375 0.625 0.25
0.375 0.75 0.25
0.375 0.875 0.25
0.375 1.0 0.25
0.5 0.0 0.25
0.5 0.125 0.25
0.5 0.25 0.25
0.5 0.375 0.25
0.5 0.5 0.25
0.5 0.625 0.25
0.5 0.75 0.25
0.5 0.875 0.25
0.5 1.0 0.25
0.625 0.0 0.25
0.625 0.125 0.25
0.625 0.25 0.25
0.625 0.375 0.25
0.625 0.5 0.25
0.625 0.625 0.25
0.625 0.75 0.25
0.625 0.875 0.25
0.625 1.0 0.25
0.75 0.0 0.25
0.75 0.125 0.25
0.75 0.25 0.25
0.75 0.375 0.25
0.75 0.5 0.25
0.75 0.625 0.25
0.75 0.75 0.25
0.75 0.875 0.25
0.75 1.0 0.25
0.875 0.0 0.25
0.875 0.125 0.25
0.875 0.25 0.25
0.875 0.375 0.25
0.875 0.5 0.25
0.875 0.625 0.25
0.875 0.75 0.25
0.875 0.875 0.25
0.875 1.0 0.25
1.0 0.0 0.25
1.0 0.125 0.25
1.0 0.25 0.25
1.0 0.375 0.25
1.0 0.5 0.25
1.0 0.625 0.25
1.0 0.75 0.25
1.0 0.875 0.25
1.0 1.0 0.25
0.0 0.0 0.375
0.0 0.125 0.375
0.0 0.25 0.375
0.0 0.375 0.375
0.0 0.5 0.375
0.0 0.625 0.375
0.0 0.75 0.375
0.0 0.875 0.375
0.0 1.0 0.375
0.125 0.0 0.375
0.125 0.125 0.375
0.125 0.25 0.375
0.125 0.375 0.375
0.125 0.5 0.375
0.125 0.625 0.375
0.125 0.75 0.375
0.125 0.875 0.375
0.125 1.0 0.375
0.25 0.0 0.375
0.25 0.125 0.375
0.25 0.25 0.375
0.25 0.375 0.375
0.25 0.5 0.375
0.25 0.625 0.375
0.25 0.75 0.375
0.25 0.875 0.375
0.25 1.0 0.375
0.375 0.0 0.375
0.375 0.125 0.375
0.375 0.25 0.375
0.375 0.375 0.375
0.375 0.5 0.375
0.375 0.625 0.375
0.375 0.75 0.375
0.375 0.875 0.375
0.375 1.0 0.375
0.5 0.0 0.375
0.5 0.125 0.375
0.5 0.25 0.375
0.5 0.375 0.375
0.5 0.5 0.375
0.5 0.625 0.375
0.5 0.75 0.375
0.5 0.875 0.375
0.5 1.0 0.375
0.625 0.0 0.375
0.625 0.125 0.375
0.625 0.25 0.375
0.625 0.375 0.375
0.625 0.5 0.375
0.625 0.625 0.375
0.625 0.75 0.375
0.625 0.875 0.375
0.625 1.0 0.375
0.75 0.0 0.375
0.75 0.125 0.375
0.75 0.25 0.375
0.75 0.375 0.375
0.75 0.5 0.375
0.75 0.625 0.375
0.75 0.75 0.375
0.75 0.875 0.375
0.75 1.0 0.375
0.875 0.0 0.375
0.875 0.125 0.375
0.875 0.25 0.375
0.875 0.375 0.375
0.875 0.5 0.375
0.875 0.625 0.375
0.875 0.75 0.375
0.875 0.875 0.375
0.875 1.0 0.375
1.0 0.0 0.375
1.0 0.125 0.375
1.0 0.25 0.375
1.0 0.375 0.375
1.0 0.5 0.375
1.0 0.625 0.375
1.0 0.75 0.375
1.0 0.875 0.375
1.0 1.0 0.375
0.0 0.0 0.5
0.0 0.125 0.5
0.0 0.25 0.5
0.0 0.375 0.5
0.0 0.5 0.5
0.0 0.625 0.5
0.0 0.75 0.5
0.0 0.875 0.5
0.0 1.0 0.5
0.125 0.0 0.5
0.125 0.125 0.5
0.125 0.25 0.5
0.125 0.375 0.5
0.125 0.5 0.5
0.125 0.625 0.5
0.125 0.75 0.5
0.125 0.875 0.5
0.125 1.0 0.5
0.25 0.0 0.5
0.25 0.125 0.5
0.25 0.25 0.5
0.25 0.375 0.5
0.25 0.5 0.5
0.25 0.625 0.5
0.25 0.75 0.5
0.25 0.875 0.5
0.25 1.0 0.5
0.375 0.0 0.5
0.375 0.125 0.5
0.375 0.25 0.5
0.375 0.375 0.5
0.375 0.5 0.5
0.375 0.625 0.5
0.375 0.75 0.5
0.375 0.875 0.5
0.375 1.0 0.5
0.5 0.0 0.5
0.5 0.125 0.5
0.5 0.25 0.5
0.5 0.375 0.5
0.5 0.5 0.5
0.5 0.625 0.5
0.5 0.75 0.5
0.5 0.875 0.5
0.5 1.0 0.5
0.625 0.0 0.5
0.625 0.125 0.5
0.625 0.25 0.5
0.625 0.375 0.5
0.625 0.5 0.5
0.625 0.625 0.5
0.625 0.75 0.5
0.625 0.875 0.5
0.625 1.0 0.5
0.75 0.0 0.5
0.75 0.125 0.5
0.75 0.25 0.5
0.75 0.375 0.5
0.75 0.5 0.5
0.75 0.625 0.5
0.75 0.75 0.5
0.75 0.875 0.5
0.75 1.0 0.5
0.875 0.0 0.5
0.875 0.125 0.5
0.875 0.25 0.5
0.875 0.375 0.5
0.875 0.5 0.5
0.875 0.625 0.5
0.875 0.75 0.5
0.875 0.875 0.5
0.875 1.0 0.5
1.0 0.0 0.5
1.0 0.125 0.5
1.0 0.25 0.5
1.0 0.375 0.5
1.0 0.5 0.5
1.0 0.625 0.5
1.0 0.75 0.5
1.0 0.875 0.5
1.0 1.0 0.5
0.0 0.0 0.625
0.0 0.125 0.625
0.0 0.25 0.625
0.0 0.375 0.625
0.0 0.5 0.625
0.0 0.625 0.625
0.0 0.75 0.625
0.0 0.875 0.625
0.0 1.0 0.625
0.125 0.0 0.625
0.125 0.125 0.625
0.125 0.25 0.625
0.125 0.375 0.625
0.125 0.5 0.625
0.125 0.625 0.625
0.125 0.75 0.625
0.125 0.875 0.625
0.125 1.0 0.625
0.25 0.0 0.625
0.25 0.125 0.625
0.25 0.25 0.625
0.25 0.375 0.625
0.25 0.5 0.625
0.25 0.625 0.625
0.25 0.75 0.625
0.25 0.875 0.625
0.25 1.0 0.625
0.375 0.0 0.625
0.375 0.125 0.625
0.375 0.25 0.625
0.375 0.375 0.625
0.375 0.5 0.625
0.375 0.625 0.625
0.375 0.75 0.625
0.375 0.875 0.625
0.375 1.0 0.625
0.5 0.0 0.625
0.5 0.125 0.625
0.5 0.25 0.625
0.5 0.375 0.625
0.5 0.5 0.625
0.5 0.625 0.625
0.5 0.75 0.625
0.5 0.875 0.625
0.5 1.0 0.625
0.625 0.0 0.625
0.625 0.125 0.625
0.625 0.25 0.625
0.625 0.375 0.625
0.625 0.5 0.625
0.625 0.625 0.625
0.625 0.75 0.625
0.625 0.875 0.625
0.625 1.0 0.625
0.75 0.0 0.625
0.75 0.125 0.625
0.75 0.25 0.625
0.75 0.375 0.625
0.75 0.5 0.625
0.75 0.625 0.625
0.75 0.75 0.625
0.75 0.875 0.625
0.75 1.0 0.625
0.875 0.0 0.625
0.875 0.125 0.625
0.875 0.25 0.625
0.875 0.375 0.625
0.875 0.5 0.625
0.875 0.625 0.625
0.875 0.75 0.625
0.875 0.875 0.625
0.875 1.0 0.625
1.0 0.0 0.625
1.0 0.125 0.625
1.0 0.25 0.625
1.0 0.375 0.625
1.0 0.5 0.625
1.0 0.625 0.625
1.0 0.75 0.625
1.0 0.875 0.625
1.0 1.0 0.625
0.0 0.0 0.75
0.0 0.125 0.75
0.0 0.25 0.75
0.0 0.375 0.75
0.0 0.5 0.75
0.0 0.625 0.75
0.0 0.75 0.75
0.0 0.875 0.75
0.0 1.0 0.75
0.125 0.0 0.75
0.125 0.125 0.75
0.125 0.25 0.75
0.125 0.375 0.75
0.125 0.5 0.75
0.125 0.625 0.75
0.125 0.75 0.75
0.125 0.875 0.75
0.125 1.0 0.75
0.25 0.0 0.75
0.25 0.125 0.75
0.25 0.25 0.75
0.25 0.375 0.75
0.25 0.5 0.75
0.25 0.625 0.75
0.25 0.75 0.75
0.25 0.875 0.75
0.25 1.0 0.75
0.375 0.0 0.75
0.375 0.125 0.75
0.375 0.25 0.75
0.375 0.375 0.75
0.375 0.5 0.75
0.375 0.625 0.75
0.375 0.75 0.75
0.375 0.875 0.75
0.375 1.0 0.75
0.5 0.0 0.75
0.5 0.125 0.75
0.5 0.25 0.75
0.5 0.375 0.75
0.5 0.5 0.75
0.5 0.625 0.75
0.5 0.75 0.75
0.5 0.875 0.75
0.5 1.0 0.75
0.625 0.0 0.75
0.625 0.125 0.75
0.625 0.25 0.75
0.625 0.375 0.75
0.625 0.5 0.75
0.625 0.625 0.75
0.625 0.75 0.75
0.625 0.875 0.75
0.625 1.0 0.75
0.75 0.0 0.75
0.75 0.125 0.75
0.75 0.25 0.75
0.75 0.375 0.75
0.75 0.5 0.75
0.75 0.625 0.75
0.75 0.75 0.75
0.75 0.875 0.75
0.75 1.0 0.75
0.875 0.0 0.75
0.875 0.125 0.75
0.875 0.25 0.75
0.875 0.375 0.75
0.875 0.5 0.75
0.875 0.625 0.75
0.875 0.75 0.75
0.875 0.875 0.75
0.875 1.0 0.75
1.0 0.0 0.75
1.0 0.125 0.75
1.0 0.25 0.75
1.0 0.375 0.75
1.0 0.5 0.75
1.0 0.625 0.75
1.0 0.75 0.75
1.0 0.875 0.75
1.0 1.0 0.75
0.0 0.0 0.875
0.0 0.125 0.875
0.0 0.25 0.875
0.0 0.375 0.875
0.0 0.5 0.875
0.0 0.625 0.875
0.0 0.75 0.875
0.0 0.875 0.875
0.0 1.0 0.875
0.125 0.0 0.875
0.125 0.125 0.875
0.125 0.25 0.875
0.125 0.375 0.875
0.125 0.5 0.875
0.125 0.625 0.875
0.125 0.75 0.875
0.125 0.875 0.875
0.125 1.0 0.875
0.25 0.0 0.875
0.25 0.125 0.875
0.25 0.25 0.875
0.25 0.375 0.875
0.25 0.5 0.875
0.25 0.625 0.875
0.25 0.75 0.875
0.25 0.875 0.875
0.25 1.0 0.875
0.375 0.0 0.875
0.375 0.125 0.875
0.375 0.25 0.875
0.375 0.375 0.875
0.375 0.5 0.875
0.375 0.625 0.875
0.375 0.75 0.875
0.375 0.875 0.875
0.375 1.0 0.875
0.5 0.0 0.875
0.5 0.125 0.875
0.5 0.25 0.875
0.5 0.375 0.875
0.5 0.5 0.875
0.5 0.625 0.875
0.5 0.75 0.875
0.5 0.875 0.875
0.5 1.0 0.875
0.625 0.0 0.875
0.625 0.125 0.875
0.625 0.25 0.875
0.625 0.375 0.875
0.625 0.5 0.875
0.625 0.625 0.875
0.625 0.75 0.875
0.625 0.875 0.875
0.625 1.0 0.875
0.75 0.0 0.875
0.75 0.125 0.875
0.75 0.25 0.875
0.75 0.375 0.875
0.75 0.5 0.875
0.75 0.625 0.875
0.75 0.75 0.875
0.75 0.875 0.875
0.75 1.0 0.875
0.875 0.0 0.875
0.875 0.125 0.875
0.875 0.25 0.875
0.875 0.375 0.875
0.875 0.5 0.875
0.875 0.625 0.875
0.875 0.75 0.875
0.875 0.875 0.875
0.875 1.0 0.875
[...]
CELL_DATA 512
SCALARS Temperature double
LOOKUP_TABLE default
2.210823247824853
2.505221464467658
2.838801459950662
3.216787371875319
3.6450939311626094
4.130419788943872
4.680350775989287
5.303474058907914
2.505221464472216
2.83886904537626
3.216898232676102
3.645234278603472
4.130580984739994
4.680525168574556
5.303651650260109
6.009672303828387
2.838801459952433
3.2168982326732447
3.6452796585960185
4.130659567982271
4.680634417785214
5.303798978434393
6.009876475261826
6.809870413125026
3.2167873718713538
3.6452342786034477
4.130659567982843
4.68067065726158
5.303875235686809
6.010011682515088
6.810096857425626
7.7165995322362555
3.645093931165092
4.130580984739291
4.680634417778238
5.303875235682019
6.010057760396253
6.810217469396077
7.7168382177629775
8.744048327889153
4.13041978894736
4.6805251685743885
5.30379897842786
6.010011682509574
6.810217469397132
7.716923272825117
8.744277342247305
9.908288011276232
4.680350775989778
5.303651650262411
6.009876475262219
6.810096857421095
7.716838217760595
8.744277342250129
9.908456786833552
11.227520466535122
5.303474058906932
6.009672303831678
6.8098704131279995
7.716599532231276
8.744048327890743
9.908288011281655
11.22752046653525
12.722350351435033
2.5052214644713895
2.8388690453766925
3.216898232671325
3.645234278603114
4.130580984738821
4.68052516857505
5.3036516502636335
6.009672303833069
2.8388690453817085
3.217078218358389
3.6455341021583294
4.130962577449288
4.680963516489273
5.304123371220788
6.010140809027927
6.809978486642565
3.2168982326791493
3.6455341021594636
4.13108950206396
4.681184640464323
5.304431101466556
6.010552381490805
6.810526183148703
7.716771012889197
3.6452342786068153
4.13096257744995
4.681184640464065
5.304534289669058
6.010769069624767
6.81090498290761
7.71737860589748
8.744262435175987
4.130580984738717
4.680963516489193
5.304431101466047
6.010769069624194
6.811035690704626
7.717715012182602
8.744899854642354
9.908534589421441
4.680525168572599
5.304123371220408
6.010552381489481
6.810904982906139
7.717715012181667
8.745134652020914
9.909139268447722
11.22779288516452
5.303651650264198
6.010140809026882
6.810526183146915
7.717378605896538
8.744899854641746
9.909139268447417
11.22822701301107
12.722642950008936
6.009672303830256
6.809978486643395
7.716771012890186
8.744262435174981
9.908534589429204
11.227792885174326
12.72264295000891
14.416393764531158
2.838801459954147
3.2168982326734645
3.645279658591089
4.130659567978966
4.680634417780151
5.303798978428102
6.009876475265001
6.809870413126424
3.216898232678829
3.6455341021587393
4.131089502063514
4.681184640463579
5.3044311014658945
6.0105523814907125
6.810526183148611
7.716771012887946
3.645279658599824
4.131089502064803
4.681372176098978
5.304760234150859
6.011011004079724
6.811133405996489
7.717549637030578
8.744327024208483
4.130659567988344
4.681184640464567
5.304760234150951
6.011166777763801
6.81145973011433
7.71811061710838
8.745191529752296
9.908643582826336
4.6806344177820485
5.30443110146646
6.011011004079451
6.811459730114042
7.718307065401785
8.745687046803214
9.909545955983909
11.227944625485087
5.303798978429684
6.010552381490246
6.811133405995829
7.71811061710775
8.745687046802725
9.90988746787033
11.228790348814082
12.722856245895787
6.009876475267021
6.810526183147464
7.717549637030222
8.745191529751157
9.909545955983354
11.228790348813694
12.723448723871856
14.4167194457968
6.80987041312582
7.716771012886572
8.744327024201283
9.908643582830132
11.227944625485408
12.722856245896388
14.416719445798927
16.33594330811075
3.216787371870729
3.645234278602854
4.130659567981737
4.680670657257504
5.303875235681272
6.010011682510412
6.810096857423923
7.716599532229271
3.645234278605537
4.130962577449429
4.681184640463389
5.3045342896684335
6.010769069624167
6.810904982907359
7.717378605897801
8.744262435172844
4.130659567985911
4.681184640464604
5.304760234150902
6.01116677776377
6.8114597301143345
7.718110617108449
8.7451915297517
9.908643582833992
4.6806706572678
5.3045342896692835
6.011166777763843
6.8116489362086945
7.718506954807586
8.745869005247403
9.909675871527678
11.22799209085223
5.303875235683998
6.01076906962473
6.811459730114175
7.718506954807381
8.746107567907018
9.910273267795505
11.229067998476523
12.72295817227626
6.0100116825114425
6.81090498290715
7.718110617107955
8.745869005246853
9.910273267794981
11.229477776075413
12.723962575301194
14.416913093854696
6.810096857426228
7.717378605896991
8.745191529751313
9.90967587152603
11.229067998475175
12.723962575300211
14.417612080187244
16.336304054219607
7.716599532231333
8.744262435173134
9.90864358282846
11.227992090855867
12.722958172268333
14.416913093846098
16.336304054222786
18.511056581474868
3.6450939311639483
4.130580984742009
4.680634417780022
5.303875235681758
6.010057760395785
6.810217469400256
7.716838217764719
8.744048327889736
4.130580984736664
4.680963516489299
5.3044311014662755
6.010769069624266
6.811035690704719
7.717715012182459
8.744899854642103
9.908534589423619
4.680634417779903
5.304431101466818
6.011011004079668
6.8114597301142865
7.718307065402003
8.745687046803301
9.9095459559843
11.227944625483273
5.303875235688576
6.0107690696245175
6.811459730114349
7.718506954807557
8.746107567907174
9.910273267795588
11.229067998476385
12.722958172275273
6.010057760393565
6.811035690705127
7.7183070654018655
8.746107567907003
9.910527198044937
11.22971212270449
12.724132265645435
14.416975623539352
6.810217469396205
7.717715012182579
8.745687046802933
9.910273267795015
11.229712122703981
12.724577528553423
14.418077226618852
16.336480698101965
7.716838217767506
8.744899854641769
9.909545955983518
11.22906799847503
12.724132265643608
14.418077226617186
16.337252018453775
18.51144223790736
8.74404832789003
9.908534589421592
11.227944625482252
12.722958172274076
14.41697562353378
16.336480698100075
18.511442237907794
20.975769565694826
4.130419788948435
4.680525168578865
5.303798978429188
6.010011682512104
6.8102174694004525
7.716923272826058
8.744277342249282
9.908288011280987
4.68052516857265
5.3041233712212525
6.010552381490874
6.810904982907045
7.7177150121822145
8.745134652021656
9.90913926844769
11.22779288516789
5.303798978429431
6.0105523814909585
6.811133405996414
7.71811061710839
8.745687046803287
9.909887467870565
11.228790348813957
12.722856245894292
6.010011682513892
6.810904982907198
7.7181106171083975
8.745869005247314
9.910273267795425
11.229477776075646
12.7239625753011
14.41691309385122
6.810217469397843
7.717715012182257
8.745687046803189
9.910273267795287
11.229712122704267
12.724577528553631
14.41807722661838
16.33648069810348
7.716923272823242
8.74513465202159
9.909887467870307
11.229477776075225
12.724577528553226
14.418511017346333
16.33758843745681
18.51157212105937
8.744277342251458
9.909139268447607
11.228790348813458
12.72396257530011
14.418077226617307
16.337588437455928
18.512363329602024
20.976150176756533
9.908288011279524
11.227792885164785
12.722856245893981
14.41691309385062
16.336480698100793
18.511572121059224
20.97615017675568
23.76863803091967
4.680350775986873
5.303651650265211
6.0098764752646785
6.8100968574209695
7.71683821775907
8.74427734224724
9.90845678683214
11.22752046653602
5.303651650264418
6.010140809028144
6.810526183148366
7.717378605897595
8.744899854642346
9.90913926844788
11.228227013010784
12.722642950007241
6.009876475268078
6.810526183148436
7.717549637031235
8.745191529752065
9.909545955984136
11.228790348814032
12.723448723871106
14.416719445797847
6.8100968574220735
7.7173786058979115
8.745191529752049
9.909675871527115
11.229067998476001
12.723962575300646
14.417612080187249
16.336304054221344
7.716838217760333
8.74489985464227
9.909545955984077
11.229067998475918
12.724132265644387
14.418077226617894
16.33725201845427
18.51144223790639
8.744277342247766
9.909139268447836
11.228790348813881
12.723962575300412
14.418077226617697
16.33758843745628
18.51236332960213
20.976150176755773
9.908456786832675
11.228227013010738
12.723448723870941
14.417612080186931
16.33725201845381
18.512363329601865
20.976835316940562
23.76893142226525
11.227520466535065
12.722642950008055
14.416719445798972
16.336304054221316
18.51144223790608
20.97615017675568
23.76893142226544
26.93333396820772
5.303474058906486
6.009672303833459
6.809870413128703
7.716599532230233
8.744048327888873
9.908288011280064
11.227520466534662
12.722350351434251
6.009672303833571
6.80997848664679
7.716771012889486
8.744262435175049
9.908534589426091
11.227792885168622
12.722642950008588
14.416393764527243
6.809870413130398
7.716771012889665
8.744327024202951
9.90864358283089
11.227944625483962
12.722856245894281
14.41671944579905
16.33594330810565
7.7165995322317755
8.744262435175134
9.9086435828309
11.227992090855674
12.722958172272644
14.416913093850695
16.33630405422146
18.5110565814741
8.744048327889836
9.908534589426152
11.227944625483932
12.72295817227262
14.416975623536825
16.336480698101695
18.51144223790628
20.975769565697334
9.908288011280968
11.227792885168622
12.722856245894238
14.416913093850631
16.336480698101642
18.51157212105916
20.976150176755766
23.76863803092148
11.227520466535198
12.722642950008574
14.416719445799032
16.336304054221426
18.511442237906195
20.976150176755716
23.76893142226534
26.933333968207727
12.7223503514343
14.41639376452823
16.33594330810664
18.5110565814742
20.975769565697362
23.768638030921544
26.933333968207805
30.519296713364465
