# vtk DataFile Version 3.0
Generated by easyPDE
ASCII
DATASET UNSTRUCTURED_GRID
POINTS 729 double
0.0 0.0 0.0
0.0 0.125 0.0
0.0 0.25 0.0
0.0 0.375 0.0
0.0 0.5 0.0
0.0 0.625 0.0
0.0 0.75 0.0
0.0 0.875 0.0
0.0 1.0 0.0
0.125 0.0 0.0
0.125 0.125 0.0
0.125 0.25 0.0
0.125 0.375 0.0
0.125 0.5 0.0
0.125 0.625 0.0
0.125 0.75 0.0
0.125 0.875 0.0
0.125 1.0 0.0
0.25 0.0 0.0
0.25 0.125 0.0
0.25 0.25 0.0
0.25 0.375 0.0
0.25 0.5 0.0
0.25 0.625 0.0
0.25 0.75 0.0
0.25 0.875 0.0
0.25 1.0 0.0
0.375 0.0 0.0
0.375 0.125 0.0
0.375 0.25 0.0
0.375 0.375 0.0
0.375 0.5 0.0
0.375 0.625 0.0
0.375 0.75 0.0
0.375 0.875 0.0
0.375 1.0 0.0
0.5 0.0 0.0
0.5 0.125 0.0
0.5 0.25 0.0
0.5 0.375 0.0
0.5 0.5 0.0
0.5 0.625 0.0
0.5 0.75 0.0
0.5 0.875 0.0
0.5 1.0 0.0
0.625 0.0 0.0
0.625 0.125 0.0
0.625 0.25 0.0
0.625 0.375 0.0
0.625 0.5 0.0
0.625 0.625 0.0
0.625 0.75 0.0
0.625 0.875 0.0
0.625 1.0 0.0
0.75 0.0 0.0
0.75 0.125 0.0
0.75 0.25 0.0
0.75 0.375 0.0
0.75 0.5 0.0
0.75 0.625 0.0
0.75 0.75 0.0
0.75 0.875 0.0
0.75 1.0 0.0
0.875 0.0 0.0
0.875 0.125 0.0
0.875 0.25 0.0
0.875 0.375 0.0
0.875 0.5 0.0
0.875 0.625 0.0
0.875 0.75 0.0
0.875 0.875 0.0
0.875 1.0 0.0
1.0 0.0 0.0
1.0 0.125 0.0
1.0 0.25 0.0
1.0 0.375 0.0
1.0 0.5 0.0
1.0 0.625 0.0
1.0 0.75 0.0
1.0 0.875 0.0
1.0 1.0 0.0
0.0 0.0 0.125
0.0 0.125 0.125
0.0 0.25 0.125
0.0 0.375 0.125
0.0 0.5 0.125
0.0 0.625 0.125
0.0 0.75 0.125
0.0 0.875 0.125
0.0 1.0 0.125
0.125 0.0 0.125
0.125 0.125 0.125
0.125 0.25 0.125
0.125 0.375 0.125
0.125 0.5 0.125
0.125 0.625 0.125
0.125 0.75 0.125
0.125 0.875 0.125
0.125 1.0 0.125
0.25 0.0 0.125
0.25 0.125 0.125
0.25 0.25 0.125
0.25 0.375 0.125
0.25 0.5 0.125
0.25 0.625 0.125
0.25 0.75 0.125
0.25 0.875 0.125
0.25 1.0 0.125
0.375 0.0 0.125
0.375 0.125 0.125
0.375 0.25 0.125
0.375 0.375 0.125
0.375 0.5 0.125
0.375 0.625 0.125
0.375 0.75 0.125
0.375 0.875 0.125
0.375 1.0 0.125
0.5 0.0 0.125
0.5 0.125 0.125
0.5 0.25 0.125
0.5 0.375 0.125
0.5 0.5 0.125
0.5 0.625 0.125
0.5 0.75 0.125
0.5 0.875 0.125
0.5 1.0 0.125
0.625 0.0 0.125
0.625 0.125 0.125
0.625 0.25 0.125
0.625 0.375 0.125
0.625 0.5 0.125
0.625 0.625 0.125
0.625 0.75 0.125
0.625 0.875 0.125
0.625 1.0 0.125
0.75 0.0 0.125
0.75 0.125 0.125
0.75 0.25 0.125
0.75 0.375 0.125
0.75 0.5 0.125
0.75 0.625 0.125
0.75 0.75 0.125
0.75 0.875 0.125
0.75 1.0 0.125
0.875 0.0 0.125
0.875 0.125 0.125
0.875 0.25 0.125
0.875 0.375 0.125
0.875 0.5 0.125
0.875 0.625 0.125
0.875 0.75 0.125
0.875 0.875 0.125
0.875 1.0 0.125
1.0 0.0 0.125
1.0 0.125 0.125
1.0 0.25 0.125
1.0 0.375 0.125
1.0 0.5 0.125
1.0 0.625 0.125
1.0 0.75 0.125
1.0 0.875 0.125
1.0 1.0 0.125
0.0 0.0 0.25
0.0 0.125 0.25
0.0 0.25 0.25
0.0 0.375 0.25
0.0 0.5 0.25
0.0 0.625 0.25
0.0 0.75 0.25
0.0 0.875 0.25
0.0 1.0 0.25
0.125 0.0 0.25
0.125 0.125 0.25
0.125 0.25 0.25
0.125 0.375 0.25
0.125 0.5 0.25
0.125 0.625 0.25
0.125 0.75 0.25
0.125 0.875 0.25
0.125 1.0 0.25
0.25 0.0 0.25
0.25 0.125 0.25
0.25 0.25 0.25
0.25 0.375 0.25
0.25 0.5 0.25
0.25 0.625 0.25
0.25 0.75 0.25
0.25 0.875 0.25
0.25 1.0 0.25
0.375 0.0 0.25
0.375 0.125 0.25
0.375 0.25 0.25
0.375 0.375 0.25
0.375 0.5 0.25
0.375 0.625 0.25
0.375 0.75 0.25
0.375 0.875 0.25
0.375 1.0 0.25
0.5 0.0 0.25
0.5 0.125 0.25
0.5 0.25 0.25
0.5 0.375 0.25
0.5 0.5 0.25
0.5 0.625 0.25
0.5 0.75 0.25
0.5 0.875 0.25
0.5 1.0 0.25
0.625 0.0 0.25
0.625 0.125 0.25
0.625 0.25 0.25
0.625 0.375 0.25
0.625 0.5 0.25
0.625 0.625 0.25
0.625 0.75 0.25
0.625 0.875 0.25
0.625 1.0 0.25
0.75 0.0 0.25
0.75 0.125 0.25
0.75 0.25 0.25
0.75 0.375 0.25
0.75 0.5 0.25
0.75 0.625 0.25
0.75 0.75 0.25
0.75 0.875 0.25
0.75 1.0 0.25
0.875 0.0 0.25
0.875 0.125 0.25
0.875 0.25 0.25
0.875 0.375 0.25
0.875 0.5 0.25
0.875 0.625 0.25
0.875 0.75 0.25
0.875 0.875 0.25
0.875 1.0 0.25
1.0 0.0 0.25
1.0 0.125 0.25
1.0 0.25 0.25
1.0 0.375 0.25
1.0 0.5 0.25
1.0 0.625 0.25
1.0 0.75 0.25
1.0 0.875 0.25
1.0 1.0 0.25
0.0 0.0 0.375
0.0 0.125 0.375
0.0 0.25 0.375
0.0 0.375 0.375
0.0 0.5 0.375
0.0 0.625 0.375
0.0 0.75 0.375
0.0 0.875 0.375
0.0 1.0 0.375
0.125 0.0 0.375
0.125 0.125 0.375
0.125 0.25 0.375
0.125 0.375 0.375
0.125 0.5 0.375
0.125 0.625 0.375
0.125 0.75 0.375
0.125 0.875 0.375
0.125 1.0 0.375
0.25 0.0 0.375
0.25 0.125 0.375
0.25 0.25 0.375
0.25 0.375 0.375
0.25 0.5 0.375
0.25 0.625 0.375
0.25 0.75 0.375
0.25 0.875 0.375
0.25 1.0 0.375
0.375 0.0 0.375
0.375 0.125 0.375
0.375 0.25 0.375
0.375 0.375 0.375
0.375 0.5 0.375
0.375 0.625 0.375
0.375 0.75 0.375
0.375 0.875 0.375
0.375 1.0 0.375
0.5 0.0 0.375
0.5 0.125 0.375
0.5 0.25 0.375
0.5 0.375 0.375
0.5 0.5 0.375
0.5 0.625 0.375
0.5 0.75 0.375
0.5 0.875 0.375
0.5 1.0 0.375
0.625 0.0 0.375
0.625 0.125 0.375
0.625 0.25 0.375
0.625 0.375 0.375
0.625 0.5 0.375
0.625 0.625 0.375
0.625 0.75 0.375
0.625 0.875 0.375
0.625 1.0 0.375
0.75 0.0 0.375
0.75 0.125 0.375
0.75 0.25 0.375
0.75 0.375 0.375
0.75 0.5 0.375
0.75 0.625 0.375
0.75 0.75 0.375
0.75 0.875 0.375
0.75 1.0 0.375
0.875 0.0 0.375
0.875 0.125 0.375
0.875 0.25 0.375
0.875 0.375 0.375
0.875 0.5 0.375
0.875 0.625 0.375
0.875 0.75 0.375
0.875 0.875 0.375
0.875 1.0 0.375
1.0 0.0 0.375
1.0 0.125 0.375
1.0 0.25 0.375
1.0 0.375 0.375
1.0 0.5 0.375
1.0 0.625 0.375
1.0 0.75 0.375
1.0 0.875 0.375
1.0 1.0 0.375
0.0 0.0 0.5
0.0 0.125 0.5
0.0 0.25 0.5
0.0 0.375 0.5
0.0 0.5 0.5
0.0 0.625 0.5
0.0 0.75 0.5
0.0 0.875 0.5
0.0 1.0 0.5
0.125 0.0 0.5
0.125 0.125 0.5
0.125 0.25 0.5
0.125 0.375 0.5
0.125 0.5 0.5
0.125 0.625 0.5
0.125 0.75 0.5
0.125 0.875 0.5
0.125 1.0 0.5
0.25 0.0 0.5
0.25 0.125 0.5
0.25 0.25 0.5
0.25 0.375 0.5
0.25 0.5 0.5
0.25 0.625 0.5
0.25 0.75 0.5
0.25 0.875 0.5
0.25 1.0 0.5
0.375 0.0 0.5
0.375 0.125 0.5
0.375 0.25 0.5
0.375 0.375 0.5
0.375 0.5 0.5
0.375 0.625 0.5
0.375 0.75 0.5
0.375 0.875 0.5
0.375 1.0 0.5
0.5 0.0 0.5
0.5 0.125 0.5
0.5 0.25 0.5
0.5 0.375 0.5
0.5 0.5 0.5
0.5 0.625 0.5
0.5 0.75 0.5
0.5 0.875 0.5
0.5 1.0 0.5
0.625 0.0 0.5
0.625 0.125 0.5
0.625 0.25 0.5
0.625 0.375 0.5
0.625 0.5 0.5
0.625 0.625 0.5
0.625 0.75 0.5
0.625 0.875 0.5
0.625 1.0 0.5
0.75 0.0 0.5
0.75 0.125 0.5
0.75 0.25 0.5
0.75 0.375 0.5
0.75 0.5 0.5
0.75 0.625 0.5
0.75 0.75 0.5
0.75 0.875 0.5
0.75 1.0 0.5
0.875 0.0 0.5
0.875 0.125 0.5
0.875 0.25 0.5
0.875 0.375 0.5
0.875 0.5 0.5
0.875 0.625 0.5
0.875 0.75 0.5
0.875 0.875 0.5
0.875 1.0 0.5
1.0 0.0 0.5
1.0 0.125 0.5
1.0 0.25 0.5
1.0 0.375 0.5
1.0 0.5 0.5
1.0 0.625 0.5
1.0 0.75 0.5
1.0 0.875 0.5
1.0 1.0 0.5
0.0 0.0 0.625
0.0 0.125 0.625
0.0 0.25 0.625
0.0 0.375 0.625
0.0 0.5 0.625
0.0 0.625 0.625
0.0 0.75 0.625
0.0 0.875 0.625
0.0 1.0 0.625
0.125 0.0 0.625
0.125 0.125 0.625
0.125 0.25 0.625
0.125 0.375 0.625
0.125 0.5 0.625
0.125 0.625 0.625
0.125 0.75 0.625
0.125 0.875 0.625
0.125 1.0 0.625
0.25 0.0 0.625
0.25 0.125 0.625
0.25 0.25 0.625
0.25 0.375 0.625
0.25 0.5 0.625
0.25 0.625 0.625
0.25 0.75 0.625
0.25 0.875 0.625
0.25 1.0 0.625
0.375 0.0 0.625
0.375 0.125 0.625
0.375 0.25 0.625
0.375 0.375 0.625
0.375 0.5 0.625
0.375 0.625 0.625
0.375 0.75 0.625
0.375 0.875 0.625
0.375 1.0 0.625
0.5 0.0 0.625
0.5 0.125 0.625
0.5 0.25 0.625
0.5 0.375 0.625
0.5 0.5 0.625
0.5 0.625 0.625
0.5 0.75 0.625
0.5 0.875 0.625
0.5 1.0 0.625
0.625 0.0 0.625
0.625 0.125 0.625
0.625 0.25 0.625
0.625 0.375 0.625
0.625 0.5 0.625
0.625 0.625 0.625
0.625 0.75 0.625
0.625 0.875 0.625
0.625 1.0 0.625
0.75 0.0 0.625
0.75 0.125 0.625
0.75 0.25 0.625
0.75 0.375 0.625
0.75 0.5 0.625
0.75 0.625 0.625
0.75 0.75 0.625
0.75 0.875 0.625
0.75 1.0 0.625
0.875 0.0 0.625
0.875 0.125 0.625
0.875 0.25 0.625
0.875 0.375 0.625
0.875 0.5 0.625
0.875 0.625 0.625
0.875 0.75 0.625
0.875 0.875 0.625
0.875 1.0 0.625
1.0 0.0 0.625
1.0 0.125 0.625
1.0 0.25 0.625
1.0 0.375 0.625
1.0 0.5 0.625
1.0 0.625 0.625
1.0 0.75 0.625
1.0 0.875 0.625
1.0 1.0 0.625
0.0 0.0 0.75
0.0 0.125 0.75
0.0 0.25 0.75
0.0 0.375 0.75
0.0 0.5 0.75
0.0 0.625 0.75
0.0 0.75 0.75
0.0 0.875 0.75
0.0 1.0 0.75
0.125 0.0 0.75
0.125 0.125 0.75
0.125 0.25 0.75
0.125 0.375 0.75
0.125 0.5 0.75
0.125 0.625 0.75
0.125 0.75 0.75
0.125 0.875 0.75
0.125 1.0 0.75
0.25 0.0 0.75
0.25 0.125 0.75
0.25 0.25 0.75
0.25 0.375 0.75
0.25 0.5 0.75
0.25 0.625 0.75
0.25 0.75 0.75
0.25 0.875 0.75
0.25 1.0 0.75
0.375 0.0 0.75
0.375 0.125 0.75
0.375 0.25 0.75
0.375 0.375 0.75
0.375 0.5 0.75
0.375 0.625 0.75
0.375 0.75 0.75
0.375 0.875 0.75
0.375 1.0 0.75
0.5 0.0 0.75
0.5 0.125 0.75
0.5 0.25 0.75
0.5 0.375 0.75
0.5 0.5 0.75
0.5 0.625 0.75
0.5 0.75 0.75
0.5 0.875 0.75
0.5 1.0 0.75
0.625 0.0 0.75
0.625 0.125 0.75
0.625 0.25 0.75
0.625 0.375 0.75
0.625 0.5 0.75
0.625 0.625 0.75
0.625 0.75 0.75
0.625 0.875 0.75
0.625 1.0 0.75
0.75 0.0 0.75
0.75 0.125 0.75
0.75 0.25 0.75
0.75 0.375 0.75
0.75 0.5 0.75
0.75 0.625 0.75
0.75 0.75 0.75
0.75 0.875 0.75
0.75 1.0 0.75
0.875 0.0 0.75
0.875 0.125 0.75
0.875 0.25 0.75
0.875 0.375 0.75
0.875 0.5 0.75
0.875 0.625 0.75
0.875 0.75 0.75
0.875 0.875 0.75
0.875 1.0 0.75
1.0 0.0 0.75
1.0 0.125 0.75
1.0 0.25 0.75
1.0 0.375 0.75
1.0 0.5 0.75
1.0 0.625 0.75
1.0 0.75 0.75
1.0 0.875 0.75
1.0 1.0 0.75
0.0 0.0 0.875
0.0 0.125 0.875
0.0 0.25 0.875
0.0 0.375 0.875
0.0 0.5 0.875
0.0 0.625 0.875
0.0 0.75 0.875
0.0 0.875 0.875
0.0 1.0 0.875
0.125 0.0 0.875
0.125 0.125 0.875
0.125 0.25 0.875
0.125 0.375 0.875
0.125 0.5 0.875
0.125 0.625 0.875
0.125 0.75 0.875
0.125 0.875 0.875
0.125 1.0 0.875
0.25 0.0 0.875
0.25 0.125 0.875
0.25 0.25 0.875
0.25 0.375 0.875
0.25 0.5 0.875
0.25 0.625 0.875
0.25 0.75 0.875
0.25 0.875 0.875
0.25 1.0 0.875
0.375 0.0 0.875
0.375 0.125 0.875
0.375 0.25 0.875
0.375 0.375 0.875
0.375 0.5 0.875
0.375 0.625 0.875
0.375 0.75 0.875
0.375 0.875 0.875
0.375 1.0 0.875
0.5 0.0 0.875
0.5 0.125 0.875
0.5 0.25 0.875
0.5 0.375 0.875
0.5 0.5 0.875
0.5 0.625 0.875
0.5 0.75 0.875
0.5 0.875 0.875
0.5 1.0 0.875
0.625 0.0 0.875
0.625 0.125 0.875
0.625 0.25 0.875
0.625 0.375 0.875
0.625 0.5 0.875
0.625 0.625 0.875
0.625 0.75 0.875
0.625 0.875 0.875
0.625 1.0 0.875
0.75 0.0 0.875
0.75 0.125 0.875
0.75 0.25 0.875
0.75 0.375 0.875
0.75 0.5 0.875
0.75 0.625 0.875
0.75 0.75 0.875
0.75 0.875 0.875
0.75 1.0 0.875
0.875 0.0 0.875
0.875 0.125 0.875
0.875 0.25 0.875
0.875 0.375 0.875
0.875 0.5 0.875
0.875 0.625 0.875
0.875 0.75 0.875
0.875 0.875 0.875
0.875 1.0 0.875
[...]
CELL_DATA 512
SCALARS Temperature double
LOOKUP_TABLE default
7.340197258232896
8.317638542456727
9.425162604977858
10.680120843259687
12.102149768200862
13.713490557485366
15.539332158161823
17.608166520242072
8.3176385424784
9.425395553392406
10.680494450509496
12.102621058973497
13.714030113851104
15.53991307795907
17.608780066147084
19.95283832798988
9.425162604998556
10.680494450519742
12.10276701763619
13.71428496298673
15.540265784300166
17.609248377188546
19.953525014819153
22.609588790366335
10.680120843251919
12.102621058981368
13.714284962993029
15.540385659528024
17.609497308510797
19.953956320373923
22.610352028239273
25.62003749288924
12.102149768195039
13.714030113844277
15.540265784287175
17.609497308518048
19.95410534329316
22.610733353991115
25.620842790828075
29.031290539674956
13.713490557499709
15.539913077947032
17.609248377165887
19.95395632036972
22.61073335402058
25.62110865165793
29.032069835917387
32.89670780708974
15.539332158180336
17.608780066158182
19.953525014816687
22.610352028219513
25.620842790834235
29.032069835937126
32.89730874900484
37.276727465301036
17.608166520234903
19.952838327992403
22.609588790373696
25.62003749287124
29.031290539646065
32.89670780707401
37.27672746530137
42.23971899649009
8.317638542464746
9.425395553385236
10.680494450503565
12.102621058976672
13.714030113838897
15.53991307795198
17.608780066162012
19.952838328006674
9.42539555339404
10.681105953872628
12.103622094326065
13.715301015536983
15.541368388529191
17.61033848678722
19.954430824324742
22.609967563680833
10.680494450526854
12.103622094325715
13.715710894245628
15.542088000891946
17.611335408681704
19.955744930347507
22.611789564489968
25.620620681119277
12.102621058987015
13.715301015537776
15.542088000892035
17.611677449772667
19.95645410452142
22.613002663648032
25.62264506037819
29.032014725218485
13.714030113832022
15.541368388529625
17.6113354086821
19.956454104520176
22.613426617773914
25.62371317681143
29.03413851773085
32.8975387206504
15.539913077958582
17.610338486786382
19.95574493034791
22.613002663646515
25.62371317680721
29.0348758899265
32.8995661802198
37.27764100778231
17.60878006617616
19.95443082432203
22.61178956448666
25.6226450603777
29.034138517725815
32.899566180212574
37.27915289272019
42.240748285054835
19.952838327982874
22.609967563662167
25.62062068112993
29.03201472521601
32.89753872064594
37.27764100777192
42.24074828504172
47.86416701352637
9.425162604989021
10.680494450503925
12.102767017633582
13.714284962984228
15.54026578428402
17.609248377188898
19.95352501481664
22.609588790380855
10.680494450519554
12.10362209432392
13.715710894245461
15.54208800089173
17.611335408681697
19.955744930348136
22.611789564490785
25.620620681138472
12.102767017626174
13.715710894245728
15.542695861672044
17.612410249251575
19.957236091322777
22.613736320673276
25.623189895810285
29.03221903167315
13.714284962987275
15.542088000890757
17.612410249251965
19.95775377760889
22.61480775332291
25.62499339618522
29.03507490897224
32.89788643229211
15.540265784291106
17.611335408681192
19.957236091322677
22.61480775332256
25.625632898925183
29.036654519838237
32.900864714696766
37.278122490175065
17.609248377177366
19.955744930349262
22.613736320672224
25.62499339618385
29.036654519837374
32.90194122849804
37.28092520245767
42.2414141740114
19.953525014832763
22.61178956448884
25.623189895809464
29.035074908971566
32.90086471469413
37.28092520245671
42.24343988148025
47.86527412626659
22.60958879036708
25.6206206811175
29.03221903167783
32.89788643230949
37.278122490226416
42.24141417402864
47.865274126248984
54.237295281996545
10.680120843253903
12.102621058963141
13.714284962989673
15.540385659528692
17.6094973084809
19.95395632038809
22.610352028251153
25.62003749286652
12.102621058984047
13.715301015536168
15.542088000890903
17.611677449771292
19.956454104522628
22.613002663646782
25.622645060379238
29.0320147252014
13.714284962968918
15.54208800089189
17.612410249251784
19.9577537776091
22.61480775332301
25.624993396185626
29.035074908969428
32.89788643231814
15.540385659510502
17.61167744977305
19.9577537776093
22.615436969655498
25.62629579853083
29.03725444731589
32.90129030836601
37.27827736007269
17.609497308517113
19.95645410452111
22.61480775332329
25.626295798530446
29.038031789527693
32.90319587142075
37.28182103425473
42.24174141999517
19.95395632038316
22.613002663649524
25.62499339618463
29.037254447314844
32.903195871419776
37.28311300512889
42.24506119459254
47.865880961871724
22.610352028246606
25.622645060378968
29.035074908969417
32.901290308365034
37.28182103425449
42.24506119459494
47.86826162192681
54.23852516095131
25.620037492874456
29.032014725202476
32.89788643231217
37.27827736007316
42.241741420031026
47.86588096188736
54.23852516095403
61.458930832402785
12.102149768206662
13.714030113838097
15.540265784287579
17.609497308526308
19.95410534326558
22.610733354013632
25.620842790877315
29.0312905396417
13.7140301138443
15.541368388528934
17.611335408682166
19.956454104519345
22.61342661777645
25.623713176810266
29.0341385177262
32.89753872059601
15.540265784288556
17.61133540868256
19.957236091322958
22.614807753323387
25.625632898925765
29.036654519838542
32.90086471469414
37.278122490197305
17.60949730851691
19.95645410452089
22.61480775332375
25.62629579853086
29.038031789528088
32.903195871420905
37.28182103425501
42.24174142003049
19.95410534329085
22.61342661777725
25.625632898925822
29.038031789527736
32.90402025846439
37.2838678775144
42.24560302871769
47.86607953994366
22.610733354016165
25.623713176812775
29.036654519837754
32.9031958714198
37.2838678775135
42.24700190282249
47.869716908377825
54.23907383961001
25.620842790857555
29.034138517727776
32.90086471469337
37.281821034251905
42.245603028715784
47.86971690837698
54.24170102512403
61.46024847239434
29.03129053965495
32.89753872061345
37.278122490184415
42.24174142001077
47.86607953994079
54.23907383961986
61.46024847239297
69.64207352705591
13.713490557491632
15.539913077946494
17.609248377181316
19.953956320388098
22.610733354017132
25.621108651659185
29.032069835945563
32.896707807068026
15.539913077959564
17.610338486788613
19.95574493034864
22.613002663648484
25.623713176810785
29.034875889929193
32.8995661802144
37.27764100773801
17.609248377181565
19.95574493035068
22.61373632067336
25.624993396185403
29.036654519838553
32.901941228498174
37.2809252024562
42.2414141740033
19.953956320385533
22.613002663648505
25.62499339618574
29.037254447315902
32.90319587142066
37.283113005128925
42.245061194597014
47.86588096186794
22.61073335401234
25.62371317681236
29.03665451983836
32.90319587142033
37.2838678775141
42.24700190282282
47.869716908379225
54.23907383961713
25.621108651665505
29.03487588992953
32.90194122849747
37.28311300512797
42.247001902821864
47.871072258301815
54.24274413156329
61.46064813458811
29.03206983595272
32.89956618021492
37.28092520245543
42.24506119459225
47.86971690837658
54.24274413156141
61.46336191885751
69.64338882438955
32.89670780707688
37.27764100773988
42.24141417399109
47.86588096186438
54.239073839606625
61.4606481345865
69.64338882438173
78.91473583427006
15.539332158157816
17.608780066155216
19.953525014827527
22.610352028237582
25.620842790842836
29.032069835924222
32.89730874900649
37.27672746529804
17.608780066168602
19.954430824324056
22.611789564489108
25.622645060380595
29.034138517728916
32.89956618021645
37.27915289271882
42.24074828503861
19.953525014831634
22.61178956448976
25.62318989581239
29.035074908971822
32.90086471469499
37.280925202456935
42.243439881476135
47.8652741262702
22.61035202823119
25.622645060380403
29.035074908971925
32.901290308365866
37.281821034254534
42.24506119459477
47.868261621924475
54.23852516096879
25.62084279083513
29.0341385177285
32.90086471469488
37.28182103425432
42.24560302871643
47.86971690837805
54.24170102512446
61.460248472403116
29.032069835929413
32.899566180215736
37.28092520245646
42.24506119459402
47.869716908377455
54.24274413156256
61.463361918858496
69.6433888243853
32.89730874901211
37.279152892718365
42.243439881474835
47.86826162192237
54.24170102512275
61.46336191885729
69.6458108149362
78.91580533046142
37.276727465299494
42.240748285039494
47.865274126267266
54.23852516096824
61.460248472399364
69.64338882438376
78.91580533046121
89.42192490652951
17.608166520238697
19.952838327997206
22.609588790368853
25.620037492870054
29.03129053965961
32.896707807084645
37.27672746529799
42.2397189964907
19.952838327998933
22.609967563674672
25.620620681126603
29.032014725215106
32.897538720633705
37.27764100776016
42.24074828504593
47.86416701352816
22.609588790371937
25.62062068112657
29.032219031676906
32.89788643231423
37.27812249018828
42.24141417399085
47.86527412626605
54.23729528199158
25.62003749286674
29.032014725214847
32.897886432314266
37.278277360081034
42.241741420014144
47.86588096186427
54.23852516096918
61.45893083239887
29.031290539653558
32.89753872063357
37.27812249018821
42.24174142001408
47.86607953995091
54.23907383961573
61.460248472400295
69.64207352706234
32.89670780707977
37.27764100776042
42.24141417399061
47.86588096186402
54.239073839615536
61.46064813458509
69.64338882438408
78.9147358342773
37.27672746529945
42.2407482850457
47.865274126265454
54.23852516096881
61.46024847239994
69.64338882438379
78.91580533046057
89.4219249065305
42.2397189964881
47.86416701352547
54.2372952819915
61.45893083239715
69.64207352706043
78.91473583427697
89.42192490653036
101.3276970721763
