# vtk DataFile Version 3.0
Generated by easyPDE
ASCII
DATASET UNSTRUCTURED_GRID
POINTS 729 double
0.0 0.0 0.0
0.0 0.125 0.0
0.0 0.25 0.0
0.0 0.375 0.0
0.0 0.5 0.0
0.0 0.625 0.0
0.0 0.75 0.0
0.0 0.875 0.0
0.0 1.0 0.0
0.125 0.0 0.0
0.125 0.125 0.0
0.125 0.25 0.0
0.125 0.375 0.0
0.125 0.5 0.0
0.125 0.625 0.0
0.125 0.75 0.0
0.125 0.875 0.0
0.125 1.0 0.0
0.25 0.0 0.0
0.25 0.125 0.0
0.25 0.25 0.0
0.25 0.375 0.0
0.25 0.5 0.0
0.25 0.625 0.0
0.25 0.75 0.0
0.25 0.875 0.0
0.25 1.0 0.0
0.375 0.0 0.0
0.375 0.125 0.0
0.375 0.25 0.0
0.375 0.375 0.0
0.375 0.5 0.0
0.375 0.625 0.0
0.375 0.75 0.0
0.375 0.875 0.0
0.375 1.0 0.0
0.5 0.0 0.0
0.5 0.125 0.0
0.5 0.25 0.0
0.5 0.375 0.0
0.5 0.5 0.0
0.5 0.625 0.0
0.5 0.75 0.0
0.5 0.875 0.0
0.5 1.0 0.0
0.625 0.0 0.0
0.625 0.125 0.0
0.625 0.25 0.0
0.625 0.375 0.0
0.625 0.5 0.0
0.625 0.625 0.0
0.625 0.75 0.0
0.625 0.875 0.0
0.625 1.0 0.0
0.75 0.0 0.0
0.75 0.125 0.0
0.75 0.25 0.0
0.75 0.375 0.0
0.75 0.5 0.0
0.75 0.625 0.0
0.75 0.75 0.0
0.75 0.875 0.0
0.75 1.0 0.0
0.875 0.0 0.0
0.875 0.125 0.0
0.875 0.25 0.0
0.875 0.375 0.0
0.875 0.5 0.0
0.875 0.625 0.0
0.875 0.75 0.0
0.875 0.875 0.0
0.875 1.0 0.0
1.0 0.0 0.0
1.0 0.125 0.0
1.0 0.25 0.0
1.0 0.375 0.0
1.0 0.5 0.0
1.0 0.625 0.0
1.0 0.75 0.0
1.0 0.875 0.0
1.0 1.0 0.0
0.0 0.0 0.125
0.0 0.125 0.125
0.0 0.25 0.125
0.0 0.375 0.125
0.0 0.5 0.125
0.0 0.625 0.125
0.0 0.75 0.125
0.0 0.875 0.125
0.0 1.0 0.125
0.125 0.0 0.125
0.125 0.125 0.125
0.125 0.25 0.125
0.125 0.375 0.125
0.125 0.5 0.125
0.125 0.625 0.125
0.125 0.75 0.125
0.125 0.875 0.125
0.125 1.0 0.125
0.25 0.0 0.125
0.25 0.125 0.125
0.25 0.25 0.125
0.25 0.375 0.125
0.25 0.5 0.125
0.25 0.625 0.125
0.25 0.75 0.125
0.25 0.875 0.125
0.25 1.0 0.125
0.375 0.0 0.125
0.375 0.125 0.125
0.375 0.25 0.125
0.375 0.375 0.125
0.375 0.5 0.125
0.375 0.625 0.125
0.375 0.75 0.125
0.375 0.875 0.125
0.375 1.0 0.125
0.5 0.0 0.125
0.5 0.125 0.125
0.5 0.25 0.125
0.5 0.375 0.125
0.5 0.5 0.125
0.5 0.625 0.125
0.5 0.75 0.125
0.5 0.875 0.125
0.5 1.0 0.125
0.625 0.0 0.125
0.625 0.125 0.125
0.625 0.25 0.125
0.625 0.375 0.125
0.625 0.5 0.125
0.625 0.625 0.125
0.625 0.75 0.125
0.625 0.875 0.125
0.625 1.0 0.125
0.75 0.0 0.125
0.75 0.125 0.125
0.75 0.25 0.125
0.75 0.375 0.125
0.75 0.5 0.125
0.75 0.625 0.125
0.75 0.75 0.125
0.75 0.875 0.125
0.75 1.0 0.125
0.875 0.0 0.125
0.875 0.125 0.125
0.875 0.25 0.125
0.875 0.375 0.125
0.875 0.5 0.125
0.875 0.625 0.125
0.875 0.75 0.125
0.875 0.875 0.125
0.875 1.0 0.125
1.0 0.0 0.125
1.0 0.125 0.125
1.0 0.25 0.125
1.0 0.375 0.125
1.0 0.5 0.125
1.0 0.625 0.125
1.0 0.75 0.125
1.0 0.875 0.125
1.0 1.0 0.125
0.0 0.0 0.25
0.0 0.125 0.25
0.0 0.25 0.25
0.0 0.375 0.25
0.0 0.5 0.25
0.0 0.625 0.25
0.0 0.75 0.25
0.0 0.875 0.25
0.0 1.0 0.25
0.125 0.0 0.25
0.125 0.125 0.25
0.125 0.25 0.25
0.125 0.375 0.25
0.125 0.5 0.25
0.125 0.625 0.25
0.125 0.75 0.25
0.125 0.875 0.25
0.125 1.0 0.25
0.25 0.0 0.25
0.25 0.125 0.25
0.25 0.25 0.25
0.25 0.375 0.25
0.25 0.5 0.25
0.25 0.625 0.25
0.25 0.75 0.25
0.25 0.875 0.25
0.25 1.0 0.25
0.375 0.0 0.25
0.375 0.125 0.25
0.375 0.25 0.25
0.375 0.375 0.25
0.375 0.5 0.25
0.375 0.625 0.25
0.375 0.75 0.25
0.375 0.875 0.25
0.375 1.0 0.25
0.5 0.0 0.25
0.5 0.125 0.25
0.5 0.25 0.25
0.5 0.375 0.25
0.5 0.5 0.25
0.5 0.625 0.25
0.5 0.75 0.25
0.5 0.875 0.25
0.5 1.0 0.25
0.625 0.0 0.25
0.625 0.125 0.25
0.625 0.25 0.25
0.625 0.375 0.25
0.625 0.5 0.25
0.625 0.625 0.25
0.625 0.75 0.25
0.625 0.875 0.25
0.625 1.0 0.25
0.75 0.0 0.25
0.75 0.125 0.25
0.75 0.25 0.25
0.75 0.375 0.25
0.75 0.5 0.25
0.75 0.625 0.25
0.75 0.75 0.25
0.75 0.875 0.25
0.75 1.0 0.25
0.875 0.0 0.25
0.875 0.125 0.25
0.875 0.25 0.25
0.875 0.375 0.25
0.875 0.5 0.25
0.875 0.625 0.25
0.875 0.75 0.25
0.875 0.875 0.25
0.875 1.0 0.25
1.0 0.0 0.25
1.0 0.125 0.25
1.0 0.25 0.25
1.0 0.375 0.25
1.0 0.5 0.25
1.0 0.625 0.25
1.0 0.75 0.25
1.0 0.875 0.25
1.0 1.0 0.25
0.0 0.0 0.375
0.0 0.125 0.375
0.0 0.25 0.375
0.0 0.375 0.375
0.0 0.5 0.375
0.0 0.625 0.375
0.0 0.75 0.375
0.0 0.875 0.375
0.0 1.0 0.375
0.125 0.0 0.375
0.125 0.125 0.375
0.125 0.25 0.375
0.125 0.375 0.375
0.125 0.5 0.375
0.125 0.625 0.375
0.125 0.75 0.375
0.125 0.875 0.375
0.125 1.0 0.375
0.25 0.0 0.375
0.25 0.125 0.375
0.25 0.25 0.375
0.25 0.375 0.375
0.25 0.5 0.375
0.25 0.625 0.375
0.25 0.75 0.375
0.25 0.875 0.375
0.25 1.0 0.375
0.375 0.0 0.375
0.375 0.125 0.375
0.375 0.25 0.375
0.375 0.375 0.375
0.375 0.5 0.375
0.375 0.625 0.375
0.375 0.75 0.375
0.375 0.875 0.375
0.375 1.0 0.375
0.5 0.0 0.375
0.5 0.125 0.375
0.5 0.25 0.375
0.5 0.375 0.375
0.5 0.5 0.375
0.5 0.625 0.375
0.5 0.75 0.375
0.5 0.875 0.375
0.5 1.0 0.375
0.625 0.0 0.375
0.625 0.125 0.375
0.625 0.25 0.375
0.625 0.375 0.375
0.625 0.5 0.375
0.625 0.625 0.375
0.625 0.75 0.375
0.625 0.875 0.375
0.625 1.0 0.375
0.75 0.0 0.375
0.75 0.125 0.375
0.75 0.25 0.375
0.75 0.375 0.375
0.75 0.5 0.375
0.75 0.625 0.375
0.75 0.75 0.375
0.75 0.875 0.375
0.75 1.0 0.375
0.875 0.0 0.375
0.875 0.125 0.375
0.875 0.25 0.375
0.875 0.375 0.375
0.875 0.5 0.375
0.875 0.625 0.375
0.875 0.75 0.375
0.875 0.875 0.375
0.875 1.0 0.375
1.0 0.0 0.375
1.0 0.125 0.375
1.0 0.25 0.375
1.0 0.375 0.375
1.0 0.5 0.375
1.0 0.625 0.375
1.0 0.75 0.375
1.0 0.875 0.375
1.0 1.0 0.375
0.0 0.0 0.5
0.0 0.125 0.5
0.0 0.25 0.5
0.0 0.375 0.5
0.0 0.5 0.5
0.0 0.625 0.5
0.0 0.75 0.5
0.0 0.875 0.5
0.0 1.0 0.5
0.125 0.0 0.5
0.125 0.125 0.5
0.125 0.25 0.5
0.125 0.375 0.5
0.125 0.5 0.5
0.125 0.625 0.5
0.125 0.75 0.5
0.125 0.875 0.5
0.125 1.0 0.5
0.25 0.0 0.5
0.25 0.125 0.5
0.25 0.25 0.5
0.25 0.375 0.5
0.25 0.5 0.5
0.25 0.625 0.5
0.25 0.75 0.5
0.25 0.875 0.5
0.25 1.0 0.5
0.375 0.0 0.5
0.375 0.125 0.5
0.375 0.25 0.5
0.375 0.375 0.5
0.375 0.5 0.5
0.375 0.625 0.5
0.375 0.75 0.5
0.375 0.875 0.5
0.375 1.0 0.5
0.5 0.0 0.5
0.5 0.125 0.5
0.5 0.25 0.5
0.5 0.375 0.5
0.5 0.5 0.5
0.5 0.625 0.5
0.5 0.75 0.5
0.5 0.875 0.5
0.5 1.0 0.5
0.625 0.0 0.5
0.625 0.125 0.5
0.625 0.25 0.5
0.625 0.375 0.5
0.625 0.5 0.5
0.625 0.625 0.5
0.625 0.75 0.5
0.625 0.875 0.5
0.625 1.0 0.5
0.75 0.0 0.5
0.75 0.125 0.5
0.75 0.25 0.5
0.75 0.375 0.5
0.75 0.5 0.5
0.75 0.625 0.5
0.75 0.75 0.5
0.75 0.875 0.5
0.75 1.0 0.5
0.875 0.0 0.5
0.875 0.125 0.5
0.875 0.25 0.5
0.875 0.375 0.5
0.875 0.5 0.5
0.875 0.625 0.5
0.875 0.75 0.5
0.875 0.875 0.5
0.875 1.0 0.5
1.0 0.0 0.5
1.0 0.125 0.5
1.0 0.25 0.5
1.0 0.375 0.5
1.0 0.5 0.5
1.0 0.625 0.5
1.0 0.75 0.5
1.0 0.875 0.5
1.0 1.0 0.5
0.0 0.0 0.625
0.0 0.125 0.625
0.0 0.25 0.625
0.0 0.375 0.625
0.0 0.5 0.625
0.0 0.625 0.625
0.0 0.75 0.625
0.0 0.875 0.625
0.0 1.0 0.625
0.125 0.0 0.625
0.125 0.125 0.625
0.125 0.25 0.625
0.125 0.375 0.625
0.125 0.5 0.625
0.125 0.625 0.625
0.125 0.75 0.625
0.125 0.875 0.625
0.125 1.0 0.625
0.25 0.0 0.625
0.25 0.125 0.625
0.25 0.25 0.625
0.25 0.375 0.625
0.25 0.5 0.625
0.25 0.625 0.625
0.25 0.75 0.625
0.25 0.875 0.625
0.25 1.0 0.625
0.375 0.0 0.625
0.375 0.125 0.625
0.375 0.25 0.625
0.375 0.375 0.625
0.375 0.5 0.625
0.375 0.625 0.625
0.375 0.75 0.625
0.375 0.875 0.625
0.375 1.0 0.625
0.5 0.0 0.625
0.5 0.125 0.625
0.5 0.25 0.625
0.5 0.375 0.625
0.5 0.5 0.625
0.5 0.625 0.625
0.5 0.75 0.625
0.5 0.875 0.625
0.5 1.0 0.625
0.625 0.0 0.625
0.625 0.125 0.625
0.625 0.25 0.625
0.625 0.375 0.625
0.625 0.5 0.625
0.625 0.625 0.625
0.625 0.75 0.625
0.625 0.875 0.625
0.625 1.0 0.625
0.75 0.0 0.625
0.75 0.125 0.625
0.75 0.25 0.625
0.75 0.375 0.625
0.75 0.5 0.625
0.75 0.625 0.625
0.75 0.75 0.625
0.75 0.875 0.625
0.75 1.0 0.625
0.875 0.0 0.625
0.875 0.125 0.625
0.875 0.25 0.625
0.875 0.375 0.625
0.875 0.5 0.625
0.875 0.625 0.625
0.875 0.75 0.625
0.875 0.875 0.625
0.875 1.0 0.625
1.0 0.0 0.625
1.0 0.125 0.625
1.0 0.25 0.625
1.0 0.375 0.625
1.0 0.5 0.625
1.0 0.625 0.625
1.0 0.75 0.625
1.0 0.875 0.625
1.0 1.0 0.625
0.0 0.0 0.75
0.0 0.125 0.75
0.0 0.25 0.75
0.0 0.375 0.75
0.0 0.5 0.75
0.0 0.625 0.75
0.0 0.75 0.75
0.0 0.875 0.75
0.0 1.0 0.75
0.125 0.0 0.75
0.125 0.125 0.75
0.125 0.25 0.75
0.125 0.375 0.75
0.125 0.5 0.75
0.125 0.625 0.75
0.125 0.75 0.75
0.125 0.875 0.75
0.125 1.0 0.75
0.25 0.0 0.75
0.25 0.125 0.75
0.25 0.25 0.75
0.25 0.375 0.75
0.25 0.5 0.75
0.25 0.625 0.75
0.25 0.75 0.75
0.25 0.875 0.75
0.25 1.0 0.75
0.375 0.0 0.75
0.375 0.125 0.75
0.375 0.25 0.75
0.375 0.375 0.75
0.375 0.5 0.75
0.375 0.625 0.75
0.375 0.75 0.75
0.375 0.875 0.75
0.375 1.0 0.75
0.5 0.0 0.75
0.5 0.125 0.75
0.5 0.25 0.75
0.5 0.375 0.75
0.5 0.5 0.75
0.5 0.625 0.75
0.5 0.75 0.75
0.5 0.875 0.75
0.5 1.0 0.75
0.625 0.0 0.75
0.625 0.125 0.75
0.625 0.25 0.75
0.625 0.375 0.75
0.625 0.5 0.75
0.625 0.625 0.75
0.625 0.75 0.75
0.625 0.875 0.75
0.625 1.0 0.75
0.75 0.0 0.75
0.75 0.125 0.75
0.75 0.25 0.75
0.75 0.375 0.75
0.75 0.5 0.75
0.75 0.625 0.75
0.75 0.75 0.75
0.75 0.875 0.75
0.75 1.0 0.75
0.875 0.0 0.75
0.875 0.125 0.75
0.875 0.25 0.75
0.875 0.375 0.75
0.875 0.5 0.75
0.875 0.625 0.75
0.875 0.75 0.75
0.875 0.875 0.75
0.875 1.0 0.75
1.0 0.0 0.75
1.0 0.125 0.75
1.0 0.25 0.75
1.0 0.375 0.75
1.0 0.5 0.75
1.0 0.625 0.75
1.0 0.75 0.75
1.0 0.875 0.75
1.0 1.0 0.75
0.0 0.0 0.875
0.0 0.125 0.875
0.0 0.25 0.875
0.0 0.375 0.875
0.0 0.5 0.875
0.0 0.625 0.875
0.0 0.75 0.875
0.0 0.875 0.875
0.0 1.0 0.875
0.125 0.0 0.875
0.125 0.125 0.875
0.125 0.25 0.875
0.125 0.375 0.875
0.125 0.5 0.875
0.125 0.625 0.875
0.125 0.75 0.875
0.125 0.875 0.875
0.125 1.0 0.875
0.25 0.0 0.875
0.25 0.125 0.875
0.25 0.25 0.875
0.25 0.375 0.875
0.25 0.5 0.875
0.25 0.625 0.875
0.25 0.75 0.875
0.25 0.875 0.875
0.25 1.0 0.875
0.375 0.0 0.875
0.375 0.125 0.875
0.375 0.25 0.875
0.375 0.375 0.875
0.375 0.5 0.875
0.375 0.625 0.875
0.375 0.75 0.875
0.375 0.875 0.875
0.375 1.0 0.875
0.5 0.0 0.875
0.5 0.125 0.875
0.5 0.25 0.875
0.5 0.375 0.875
0.5 0.5 0.875
0.5 0.625 0.875
0.5 0.75 0.875
0.5 0.875 0.875
0.5 1.0 0.875
0.625 0.0 0.875
0.625 0.125 0.875
0.625 0.25 0.875
0.625 0.375 0.875
0.625 0.5 0.875
0.625 0.625 0.875
0.625 0.75 0.875
0.625 0.875 0.875
0.625 1.0 0.875
0.75 0.0 0.875
0.75 0.125 0.875
0.75 0.25 0.875
0.75 0.375 0.875
0.75 0.5 0.875
0.75 0.625 0.875
0.75 0.75 0.875
0.75 0.875 0.875
0.75 1.0 0.875
0.875 0.0 0.875
0.875 0.125 0.875
0.875 0.25 0.875
0.875 0.375 0.875
0.875 0.5 0.875
0.875 0.625 0.875
0.875 0.75 0.875
0.875 0.875 0.875
0.875 1.0 0.875
[...]
CELL_DATA 512
SCALARS Temperature double
LOOKUP_TABLE default
8.965337350119448
10.159186920255209
11.511919816742187
13.044729333161088
14.781599415804589
16.749695474850608
18.979783698750936
21.506663567631126
10.159186920286635
11.512204460736694
13.045185592636733
14.782175070728751
16.750354565723917
18.980492935825534
21.5074132629479
24.370452419567417
11.511919816761292
13.045185592640694
14.782353090775567
16.750665685169015
18.980923710655006
21.507984562404303
24.37129097803352
27.61541466465622
13.04472933314747
14.782175070724735
16.750665685156953
18.981070287134948
21.508289000289277
24.37181749148187
27.61634703634889
31.292385151201064
14.781599415804035
16.750354565724557
18.980923710662598
21.50828900031582
24.371999758645785
27.616812287431152
31.293368821810226
35.45889911107185
16.749695474868762
18.980492935811217
21.50798456240922
24.371817491529185
27.61681228746249
31.29369267483164
35.45985075391361
40.18013039833774
18.979783698753224
21.507413262933255
24.371290978019957
27.61634703634524
31.29336882180474
35.459850753911674
40.18086518019989
45.529899071219106
21.506663567621477
24.370452419569983
27.615414664655628
31.292385151172038
35.45889911104567
40.180130398327044
45.52989907121526
51.59171026376896
10.159186920272983
11.51220446072149
13.045185592635653
14.782175070737743
16.750354565722706
18.980492935834544
21.507413262957282
24.370452419578115
11.512204460747663
13.04593250898966
14.78339734934553
16.75190664961485
18.982270368522084
21.509315751793146
24.372397471981333
27.615877648827674
13.045185592641282
14.783397349341804
16.752406740144334
18.98314904409807
21.51053349575204
24.374001161811677
27.61810219642587
31.293097415285295
14.78217507072947
16.751906649612568
18.98314904409932
21.510951678164613
24.37486836689541
27.619583456283586
31.295569804928814
35.459783760217
16.750354565721732
18.98227036852161
21.51053349575482
24.374868366897406
27.620101926544358
31.29687346880507
35.46237731200964
40.18114551768434
18.980492935836203
21.509315751791455
24.374001161814792
27.619583456284296
31.296873468802715
35.463276092264834
40.18362063400691
45.531014345770046
21.507413262961578
24.37239747197563
27.618102196421745
31.29556980492977
35.46237731200743
40.183620634002196
45.53286169175488
51.592968370544206
24.370452419562074
27.615877648813484
31.29309741528882
35.45978376020261
40.181145517700045
45.53101434577907
51.59296837052025
58.46142719991823
11.511919816759116
13.045185592618497
14.78235309078895
16.750665685169597
18.98092371065389
21.50798456243419
24.371290978028263
27.61541466466871
13.045185592659182
14.78339734934227
16.752406740145265
18.983149044101253
21.510533495757237
24.374001161816317
27.618102196427333
31.293097415307784
14.782353090759822
16.75240674014466
18.98389091819776
21.511846135281733
24.37582283184714
27.620478717059214
31.296234248466384
35.460032754427004
16.750665685153102
18.983149044097352
21.511846135281445
24.376455688837506
27.621788768874996
31.298436916820656
35.463520492162296
40.181569853581045
18.980923710660313
21.510533495753428
24.37582283184613
27.621788768874534
31.299218917001664
35.46544906896008
40.185206728701246
45.53160230023229
21.507984562414116
24.374001161814412
27.62047871705682
31.298436916819178
35.4654490689596
40.186519617987024
45.53502364153345
51.5937801116712
24.371290978044392
27.61810219642242
31.296234248462035
35.463520492161265
40.18520672869984
45.535023641534934
51.59625440704184
58.462779263777705
27.615414664656274
31.293097415282197
35.46003275442445
40.181569853582495
45.53160230031513
51.593780111717315
58.462779263748885
66.24558345091683
13.04472933315015
14.782175070700216
16.750665685177694
18.981070287134227
21.508289000264064
24.371817491522553
27.616347036359123
31.292385151167068
14.78217507074252
16.751906649613915
18.98314904409861
21.51095167816712
24.3748683669033
27.619583456286968
31.295569804932722
35.45978376018512
16.750665685134962
18.98314904410025
21.511846135282113
24.376455688838853
27.62178876887662
31.29843691682268
35.46352049216097
40.18156985360528
18.981070287111248
21.51095167816543
24.376455688838185
27.622557952835912
31.30002936684115
35.46618269114851
40.18572730792608
45.53179177421808
21.508289000302586
24.374868366897115
27.621788768875273
31.300029366840292
35.46713324955597
40.18805415560592
45.53611960803036
51.59418055566399
24.371817491502284
27.619583456286332
31.298436916819686
35.46618269114666
40.188054155604824
45.5376955850587
51.598233663693875
58.46351972677702
27.616347036352217
31.295569804928952
35.46352049215818
40.185727307924466
45.53611960802986
51.59823366369767
58.466427913451376
66.2470861217715
31.29238515117361
35.45978376018662
40.18156985358928
45.53179177420613
51.59418055572777
58.463519726813914
66.24708612176796
75.06610933521644
14.781599415808559
16.75035456570557
18.980923710664538
21.508289000316562
24.371999758625847
27.61681228747699
31.293368821844066
35.45889911103554
16.750354565738014
18.982270368524134
21.510533495755862
24.37486836689816
27.62010192655162
31.296873468806986
35.46237731200855
40.18114551762815
18.980923710653492
21.51053349575656
24.375822831847508
27.621788768876733
31.299218917003817
35.465449068962386
40.185206728701026
45.53160230027569
21.508289000297374
24.37486836689736
27.621788768876236
31.30002936684118
35.467133249556916
40.188054155606785
45.5361196080306
51.594180555732535
24.371999758658283
27.62010192654785
31.299218917002428
35.4671332495561
40.18906235353031
45.53861893435754
51.59889658681183
58.463762737153175
27.61681228746748
31.296873468807405
35.465449068959806
40.18805415560499
45.53861893435641
51.60060283386592
58.46820342754867
66.24775510840617
31.293368821832992
35.462377312007376
40.185206728698724
45.53611960802709
51.5988965868097
58.46820342754856
66.25096437512347
75.06771907902052
35.458899111050435
40.181145517646215
45.53160230025665
51.59418055570546
58.46376273715913
66.24775510842298
75.06771907902211
85.06102259292524
16.749695474860808
18.980492935823587
21.507984562426774
24.371817491522986
27.616812287470697
31.293692674850696
35.459850753926425
40.18013039832902
18.980492935857345
21.509315751796322
24.374001161815794
27.619583456286794
31.296873468807547
35.463276092269986
40.18362063400495
45.53101434572197
21.5079845624265
24.374001161817656
27.620478717059157
31.298436916821732
35.46544906896186
40.186519617988495
45.535023641534096
51.593780111674
24.371817491504526
27.619583456286
31.298436916821537
35.466182691148475
40.18805415560648
45.53769558505935
51.59823366370053
58.46351972678629
27.616812287470268
31.296873468806677
35.465449068960744
40.188054155605855
45.53861893435739
51.60060283386653
58.46820342755096
66.247755108421
31.29369267485873
35.46327609226855
40.18651961798673
45.537695585058074
51.60060283386541
58.46985586431129
66.25223484234415
75.06820534159962
35.459850753937985
40.18362063400366
45.53502364153324
51.598233663694906
58.4682034275481
66.25223484234257
75.07151977265607
85.06262900283626
40.1801303983312
45.53101434573148
51.5937801116586
58.46351972678174
66.2477551084068
75.06820534159692
85.0626290028337
96.38667792149866
18.979783698732724
21.507413262944144
24.371290978039
27.616347036343928
31.293368821813907
35.45985075390925
40.180865180203526
45.5298990712192
21.507413262967482
24.372397471980754
27.6181021964242
31.29556980493163
35.4623773120093
40.18362063400628
45.53286169175432
51.59296837050801
24.37129097804343
27.618102196425486
31.296234248466277
35.463520492161756
40.18520672870129
45.53502364153517
51.59625440703672
58.46277926377112
27.616347036331433
31.295569804931326
35.46352049216175
40.18572730792606
45.53611960803071
51.59823366369805
58.46642791344939
66.24708612178213
31.293368821805903
35.46237731200843
40.18520672870078
45.536119608030376
51.59889658681104
58.46820342755022
66.25096437512403
75.0677190790307
35.459850753911205
40.18362063400472
45.53502364153424
51.59823366369717
58.46820342754955
66.2522348423439
75.07151977265687
85.06262900283295
40.18086518019994
45.532861691753006
51.59625440703594
58.46642791344666
66.25096437512178
75.07151977265538
85.06558898771468
96.38798628660639
45.52989907121194
51.59296837051882
58.462779263767246
66.24708612178003
75.06771907902274
85.06262900283122
96.38798628660643
109.22018894260385
21.506663567616393
24.37045241956365
27.615414664649954
31.292385151168897
35.458899111052986
40.180130398338655
45.5298990712154
51.59171026377121
24.37045241957227
27.615877648821556
31.29309741529051
35.4597837602045
40.181145517674146
45.53101434575497
51.592968370525774
58.46142719992116
27.615414664654903
31.29309741529075
35.460032754426194
40.181569853589615
45.53160230025706
51.59378011165839
58.46277926376624
66.24558345091938
31.292385151165195
35.45978376020446
40.18156985358966
45.53179177421684
51.59418055571028
58.4635197267805
66.24708612178068
75.06610933522647
35.45889911104855
40.18114551767382
45.531602300256935
51.594180555710196
58.463762737179245
66.24775510841843
75.0677190790239
85.06102259293553
40.1801303983302
45.531014345755054
51.593780111658084
58.463519726780184
66.2477551084182
75.06820534159557
85.06262900283168
96.3866779215026
45.529899071213165
51.59296837052531
58.46277926376559
66.24708612178034
75.06771907902342
85.06262900283123
96.3879862866055
109.22018894260447
51.59171026376811
58.46142719992034
66.24558345092167
75.0661093352218
85.0610225929305
96.38667792150208
109.22018894260432
123.76193097307997
