# vtk DataFile Version 3.0
Generated by easyPDE
ASCII
DATASET UNSTRUCTURED_GRID
POINTS 729 double
0.0 0.0 0.0
0.0 0.125 0.0
0.0 0.25 0.0
0.0 0.375 0.0
0.0 0.5 0.0
0.0 0.625 0.0
0.0 0.75 0.0
0.0 0.875 0.0
0.0 1.0 0.0
0.125 0.0 0.0
0.125 0.125 0.0
0.125 0.25 0.0
0.125 0.375 0.0
0.125 0.5 0.0
0.125 0.625 0.0
0.125 0.75 0.0
0.125 0.875 0.0
0.125 1.0 0.0
0.25 0.0 0.0
0.25 0.125 0.0
0.25 0.25 0.0
0.25 0.375 0.0
0.25 0.5 0.0
0.25 0.625 0.0
0.25 0.75 0.0
0.25 0.875 0.0
0.25 1.0 0.0
0.375 0.0 0.0
0.375 0.125 0.0
0.375 0.25 0.0
0.375 0.375 0.0
0.375 0.5 0.0
0.375 0.625 0.0
0.375 0.75 0.0
0.375 0.875 0.0
0.375 1.0 0.0
0.5 0.0 0.0
0.5 0.125 0.0
0.5 0.25 0.0
0.5 0.375 0.0
0.5 0.5 0.0
0.5 0.625 0.0
0.5 0.75 0.0
0.5 0.875 0.0
0.5 1.0 0.0
0.625 0.0 0.0
0.625 0.125 0.0
0.625 0.25 0.0
0.625 0.375 0.0
0.625 0.5 0.0
0.625 0.625 0.0
0.625 0.75 0.0
0.625 0.875 0.0
0.625 1.0 0.0
0.75 0.0 0.0
0.75 0.125 0.0
0.75 0.25 0.0
0.75 0.375 0.0
0.75 0.5 0.0
0.75 0.625 0.0
0.75 0.75 0.0
0.75 0.875 0.0
0.75 1.0 0.0
0.875 0.0 0.0
0.875 0.125 0.0
0.875 0.25 0.0
0.875 0.375 0.0
0.875 0.5 0.0
0.875 0.625 0.0
0.875 0.75 0.0
0.875 0.875 0.0
0.875 1.0 0.0
1.0 0.0 0.0
1.0 0.125 0.0
1.0 0.25 0.0
1.0 0.375 0.0
1.0 0.5 0.0
1.0 0.625 0.0
1.0 0.75 0.0
1.0 0.875 0.0
1.0 1.0 0.0
0.0 0.0 0.125
0.0 0.125 0.125
0.0 0.25 0.125
0.0 0.375 0.125
0.0 0.5 0.125
0.0 0.625 0.125
0.0 0.75 0.125
0.0 0.875 0.125
0.0 1.0 0.125
0.125 0.0 0.125
0.125 0.125 0.125
0.125 0.25 0.125
0.125 0.375 0.125
0.125 0.5 0.125
0.125 0.625 0.125
0.125 0.75 0.125
0.125 0.875 0.125
0.125 1.0 0.125
0.25 0.0 0.125
0.25 0.125 0.125
0.25 0.25 0.125
0.25 0.375 0.125
0.25 0.5 0.125
0.25 0.625 0.125
0.25 0.75 0.125
0.25 0.875 0.125
0.25 1.0 0.125
0.375 0.0 0.125
0.375 0.125 0.125
0.375 0.25 0.125
0.375 0.375 0.125
0.375 0.5 0.125
0.375 0.625 0.125
0.375 0.75 0.125
0.375 0.875 0.125
0.375 1.0 0.125
0.5 0.0 0.125
0.5 0.125 0.125
0.5 0.25 0.125
0.5 0.375 0.125
0.5 0.5 0.125
0.5 0.625 0.125
0.5 0.75 0.125
0.5 0.875 0.125
0.5 1.0 0.125
0.625 0.0 0.125
0.625 0.125 0.125
0.625 0.25 0.125
0.625 0.375 0.125
0.625 0.5 0.125
0.625 0.625 0.125
0.625 0.75 0.125
0.625 0.875 0.125
0.625 1.0 0.125
0.75 0.0 0.125
0.75 0.125 0.125
0.75 0.25 0.125
0.75 0.375 0.125
0.75 0.5 0.125
0.75 0.625 0.125
0.75 0.75 0.125
0.75 0.875 0.125
0.75 1.0 0.125
0.875 0.0 0.125
0.875 0.125 0.125
0.875 0.25 0.125
0.875 0.375 0.125
0.875 0.5 0.125
0.875 0.625 0.125
0.875 0.75 0.125
0.875 0.875 0.125
0.875 1.0 0.125
1.0 0.0 0.125
1.0 0.125 0.125
1.0 0.25 0.125
1.0 0.375 0.125
1.0 0.5 0.125
1.0 0.625 0.125
1.0 0.75 0.125
1.0 0.875 0.125
1.0 1.0 0.125
0.0 0.0 0.25
0.0 0.125 0.25
0.0 0.25 0.25
0.0 0.375 0.25
0.0 0.5 0.25
0.0 0.625 0.25
0.0 0.75 0.25
0.0 0.875 0.25
0.0 1.0 0.25
0.125 0.0 0.25
0.125 0.125 0.25
0.125 0.25 0.25
0.125 0.375 0.25
0.125 0.5 0.25
0.125 0.625 0.25
0.125 0.75 0.25
0.125 0.875 0.25
0.125 1.0 0.25
0.25 0.0 0.25
0.25 0.125 0.25
0.25 0.25 0.25
0.25 0.375 0.25
0.25 0.5 0.25
0.25 0.625 0.25
0.25 0.75 0.25
0.25 0.875 0.25
0.25 1.0 0.25
0.375 0.0 0.25
0.375 0.125 0.25
0.375 0.25 0.25
0.375 0.375 0.25
0.375 0.5 0.25
0.375 0.625 0.25
0.375 0.75 0.25
0.375 0.875 0.25
0.375 1.0 0.25
0.5 0.0 0.25
0.5 0.125 0.25
0.5 0.25 0.25
0.5 0.375 0.25
0.5 0.5 0.25
0.5 0.625 0.25
0.5 0.75 0.25
0.5 0.875 0.25
0.5 1.0 0.25
0.625 0.0 0.25
0.625 0.125 0.25
0.625 0.25 0.25
0.625 0.375 0.25
0.625 0.5 0.25
0.625 0.625 0.25
0.625 0.75 0.25
0.625 0.875 0.25
0.625 1.0 0.25
0.75 0.0 0.25
0.75 0.125 0.25
0.75 0.25 0.25
0.75 0.375 0.25
0.75 0.5 0.25
0.75 0.625 0.25
0.75 0.75 0.25
0.75 0.875 0.25
0.75 1.0 0.25
0.875 0.0 0.25
0.875 0.125 0.25
0.875 0.25 0.25
0.875 0.375 0.25
0.875 0.5 0.25
0.875 0.625 0.25
0.875 0.75 0.25
0.875 0.875 0.25
0.875 1.0 0.25
1.0 0.0 0.25
1.0 0.125 0.25
1.0 0.25 0.25
1.0 0.375 0.25
1.0 0.5 0.25
1.0 0.625 0.25
1.0 0.75 0.25
1.0 0.875 0.25
1.0 1.0 0.25
0.0 0.0 0.375
0.0 0.125 0.375
0.0 0.25 0.375
0.0 0.375 0.375
0.0 0.5 0.375
0.0 0.625 0.375
0.0 0.75 0.375
0.0 0.875 0.375
0.0 1.0 0.375
0.125 0.0 0.375
0.125 0.125 0.375
0.125 0.25 0.375
0.125 0.375 0.375
0.125 0.5 0.375
0.125 0.625 0.375
0.125 0.75 0.375
0.125 0.875 0.375
0.125 1.0 0.375
0.25 0.0 0.375
0.25 0.125 0.375
0.25 0.25 0.375
0.25 0.375 0.375
0.25 0.5 0.375
0.25 0.625 0.375
0.25 0.75 0.375
0.25 0.875 0.375
0.25 1.0 0.375
0.375 0.0 0.375
0.375 0.125 0.375
0.375 0.25 0.375
0.375 0.375 0.375
0.375 0.5 0.375
0.375 0.625 0.375
0.375 0.75 0.375
0.375 0.875 0.375
0.375 1.0 0.375
0.5 0.0 0.375
0.5 0.125 0.375
0.5 0.25 0.375
0.5 0.375 0.375
0.5 0.5 0.375
0.5 0.625 0.375
0.5 0.75 0.375
0.5 0.875 0.375
0.5 1.0 0.375
0.625 0.0 0.375
0.625 0.125 0.375
0.625 0.25 0.375
0.625 0.375 0.375
0.625 0.5 0.375
0.625 0.625 0.375
0.625 0.75 0.375
0.625 0.875 0.375
0.625 1.0 0.375
0.75 0.0 0.375
0.75 0.125 0.375
0.75 0.25 0.375
0.75 0.375 0.375
0.75 0.5 0.375
0.75 0.625 0.375
0.75 0.75 0.375
0.75 0.875 0.375
0.75 1.0 0.375
0.875 0.0 0.375
0.875 0.125 0.375
0.875 0.25 0.375
0.875 0.375 0.375
0.875 0.5 0.375
0.875 0.625 0.375
0.875 0.75 0.375
0.875 0.875 0.375
0.875 1.0 0.375
1.0 0.0 0.375
1.0 0.125 0.375
1.0 0.25 0.375
1.0 0.375 0.375
1.0 0.5 0.375
1.0 0.625 0.375
1.0 0.75 0.375
1.0 0.875 0.375
1.0 1.0 0.375
0.0 0.0 0.5
0.0 0.125 0.5
0.0 0.25 0.5
0.0 0.375 0.5
0.0 0.5 0.5
0.0 0.625 0.5
0.0 0.75 0.5
0.0 0.875 0.5
0.0 1.0 0.5
0.125 0.0 0.5
0.125 0.125 0.5
0.125 0.25 0.5
0.125 0.375 0.5
0.125 0.5 0.5
0.125 0.625 0.5
0.125 0.75 0.5
0.125 0.875 0.5
0.125 1.0 0.5
0.25 0.0 0.5
0.25 0.125 0.5
0.25 0.25 0.5
0.25 0.375 0.5
0.25 0.5 0.5
0.25 0.625 0.5
0.25 0.75 0.5
0.25 0.875 0.5
0.25 1.0 0.5
0.375 0.0 0.5
0.375 0.125 0.5
0.375 0.25 0.5
0.375 0.375 0.5
0.375 0.5 0.5
0.375 0.625 0.5
0.375 0.75 0.5
0.375 0.875 0.5
0.375 1.0 0.5
0.5 0.0 0.5
0.5 0.125 0.5
0.5 0.25 0.5
0.5 0.375 0.5
0.5 0.5 0.5
0.5 0.625 0.5
0.5 0.75 0.5
0.5 0.875 0.5
0.5 1.0 0.5
0.625 0.0 0.5
0.625 0.125 0.5
0.625 0.25 0.5
0.625 0.375 0.5
0.625 0.5 0.5
0.625 0.625 0.5
0.625 0.75 0.5
0.625 0.875 0.5
0.625 1.0 0.5
0.75 0.0 0.5
0.75 0.125 0.5
0.75 0.25 0.5
0.75 0.375 0.5
0.75 0.5 0.5
0.75 0.625 0.5
0.75 0.75 0.5
0.75 0.875 0.5
0.75 1.0 0.5
0.875 0.0 0.5
0.875 0.125 0.5
0.875 0.25 0.5
0.875 0.375 0.5
0.875 0.5 0.5
0.875 0.625 0.5
0.875 0.75 0.5
0.875 0.875 0.5
0.875 1.0 0.5
1.0 0.0 0.5
1.0 0.125 0.5
1.0 0.25 0.5
1.0 0.375 0.5
1.0 0.5 0.5
1.0 0.625 0.5
1.0 0.75 0.5
1.0 0.875 0.5
1.0 1.0 0.5
0.0 0.0 0.625
0.0 0.125 0.625
0.0 0.25 0.625
0.0 0.375 0.625
0.0 0.5 0.625
0.0 0.625 0.625
0.0 0.75 0.625
0.0 0.875 0.625
0.0 1.0 0.625
0.125 0.0 0.625
0.125 0.125 0.625
0.125 0.25 0.625
0.125 0.375 0.625
0.125 0.5 0.625
0.125 0.625 0.625
0.125 0.75 0.625
0.125 0.875 0.625
0.125 1.0 0.625
0.25 0.0 0.625
0.25 0.125 0.625
0.25 0.25 0.625
0.25 0.375 0.625
0.25 0.5 0.625
0.25 0.625 0.625
0.25 0.75 0.625
0.25 0.875 0.625
0.25 1.0 0.625
0.375 0.0 0.625
0.375 0.125 0.625
0.375 0.25 0.625
0.375 0.375 0.625
0.375 0.5 0.625
0.375 0.625 0.625
0.375 0.75 0.625
0.375 0.875 0.625
0.375 1.0 0.625
0.5 0.0 0.625
0.5 0.125 0.625
0.5 0.25 0.625
0.5 0.375 0.625
0.5 0.5 0.625
0.5 0.625 0.625
0.5 0.75 0.625
0.5 0.875 0.625
0.5 1.0 0.625
0.625 0.0 0.625
0.625 0.125 0.625
0.625 0.25 0.625
0.625 0.375 0.625
0.625 0.5 0.625
0.625 0.625 0.625
0.625 0.75 0.625
0.625 0.875 0.625
0.625 1.0 0.625
0.75 0.0 0.625
0.75 0.125 0.625
0.75 0.25 0.625
0.75 0.375 0.625
0.75 0.5 0.625
0.75 0.625 0.625
0.75 0.75 0.625
0.75 0.875 0.625
0.75 1.0 0.625
0.875 0.0 0.625
0.875 0.125 0.625
0.875 0.25 0.625
0.875 0.375 0.625
0.875 0.5 0.625
0.875 0.625 0.625
0.875 0.75 0.625
0.875 0.875 0.625
0.875 1.0 0.625
1.0 0.0 0.625
1.0 0.125 0.625
1.0 0.25 0.625
1.0 0.375 0.625
1.0 0.5 0.625
1.0 0.625 0.625
1.0 0.75 0.625
1.0 0.875 0.625
1.0 1.0 0.625
0.0 0.0 0.75
0.0 0.125 0.75
0.0 0.25 0.75
0.0 0.375 0.75
0.0 0.5 0.75
0.0 0.625 0.75
0.0 0.75 0.75
0.0 0.875 0.75
0.0 1.0 0.75
0.125 0.0 0.75
0.125 0.125 0.75
0.125 0.25 0.75
0.125 0.375 0.75
0.125 0.5 0.75
0.125 0.625 0.75
0.125 0.75 0.75
0.125 0.875 0.75
0.125 1.0 0.75
0.25 0.0 0.75
0.25 0.125 0.75
0.25 0.25 0.75
0.25 0.375 0.75
0.25 0.5 0.75
0.25 0.625 0.75
0.25 0.75 0.75
0.25 0.875 0.75
0.25 1.0 0.75
0.375 0.0 0.75
0.375 0.125 0.75
0.375 0.25 0.75
0.375 0.375 0.75
0.375 0.5 0.75
0.375 0.625 0.75
0.375 0.75 0.75
0.375 0.875 0.75
0.375 1.0 0.75
0.5 0.0 0.75
0.5 0.125 0.75
0.5 0.25 0.75
0.5 0.375 0.75
0.5 0.5 0.75
0.5 0.625 0.75
0.5 0.75 0.75
0.5 0.875 0.75
0.5 1.0 0.75
0.625 0.0 0.75
0.625 0.125 0.75
0.625 0.25 0.75
0.625 0.375 0.75
0.625 0.5 0.75
0.625 0.625 0.75
0.625 0.75 0.75
0.625 0.875 0.75
0.625 1.0 0.75
0.75 0.0 0.75
0.75 0.125 0.75
0.75 0.25 0.75
0.75 0.375 0.75
0.75 0.5 0.75
0.75 0.625 0.75
0.75 0.75 0.75
0.75 0.875 0.75
0.75 1.0 0.75
0.875 0.0 0.75
0.875 0.125 0.75
0.875 0.25 0.75
0.875 0.375 0.75
0.875 0.5 0.75
0.875 0.625 0.75
0.875 0.75 0.75
0.875 0.875 0.75
0.875 1.0 0.75
1.0 0.0 0.75
1.0 0.125 0.75
1.0 0.25 0.75
1.0 0.375 0.75
1.0 0.5 0.75
1.0 0.625 0.75
1.0 0.75 0.75
1.0 0.875 0.75
1.0 1.0 0.75
0.0 0.0 0.875
0.0 0.125 0.875
0.0 0.25 0.875
0.0 0.375 0.875
0.0 0.5 0.875
0.0 0.625 0.875
0.0 0.75 0.875
0.0 0.875 0.875
0.0 1.0 0.875
0.125 0.0 0.875
0.125 0.125 0.875
0.125 0.25 0.875
0.125 0.375 0.875
0.125 0.5 0.875
0.125 0.625 0.875
0.125 0.75 0.875
0.125 0.875 0.875
0.125 1.0 0.875
0.25 0.0 0.875
0.25 0.125 0.875
0.25 0.25 0.875
0.25 0.375 0.875
0.25 0.5 0.875
0.25 0.625 0.875
0.25 0.75 0.875
0.25 0.875 0.875
0.25 1.0 0.875
0.375 0.0 0.875
0.375 0.125 0.875
0.375 0.25 0.875
0.375 0.375 0.875
0.375 0.5 0.875
0.375 0.625 0.875
0.375 0.75 0.875
0.375 0.875 0.875
0.375 1.0 0.875
0.5 0.0 0.875
0.5 0.125 0.875
0.5 0.25 0.875
0.5 0.375 0.875
0.5 0.5 0.875
0.5 0.625 0.875
0.5 0.75 0.875
0.5 0.875 0.875
0.5 1.0 0.875
0.625 0.0 0.875
0.625 0.125 0.875
0.625 0.25 0.875
0.625 0.375 0.875
0.625 0.5 0.875
0.625 0.625 0.875
0.625 0.75 0.875
0.625 0.875 0.875
0.625 1.0 0.875
0.75 0.0 0.875
0.75 0.125 0.875
0.75 0.25 0.875
0.75 0.375 0.875
0.75 0.5 0.875
0.75 0.625 0.875
0.75 0.75 0.875
0.75 0.875 0.875
0.75 1.0 0.875
0.875 0.0 0.875
0.875 0.125 0.875
0.875 0.25 0.875
0.875 0.375 0.875
0.875 0.5 0.875
0.875 0.625 0.875
0.875 0.75 0.875
0.875 0.875 0.875
0.875 1.0 0.875
[...]
CELL_DATA 512
SCALARS Temperature double
LOOKUP_TABLE default
1.6378223789661346
1.8559217162710646
2.1030434526495543
2.3830627641189457
2.700361256755488
3.059901893245227
3.4673054477654754
3.92891989637212
1.8559217162678037
2.103100392763788
2.383149364724024
2.700468621106603
3.060024312441192
3.467438231158094
3.929072429476304
4.452093568592493
2.1030434526483623
2.383149364728338
2.7004982419351933
3.0600753519389547
3.4675082320352284
3.9291659936828154
4.45225464645891
5.044894868585662
2.3830627641215347
2.700468621107983
3.060075351941098
3.4675317437576254
3.9292144414284356
4.452340162168307
5.045073961847762
5.7166179486157
2.700361256756485
3.060024312441243
3.4675082320371486
3.9292144414319212
4.4523690183524876
5.045149837166236
5.716809111766936
6.47777369478303
3.0599018932446556
3.4674382311560614
3.9291659936795167
4.452340162168637
5.045149837167579
5.716862978164637
6.47796455245068
7.3402687251023275
3.4673054477657095
3.9290724294737926
4.452254646454508
5.045073961845382
5.716809111763906
6.477964552446088
7.340428593142855
8.31758937187941
3.928919896372861
4.452093568590858
5.044894868584525
5.716617948615599
6.477773694777813
7.340268725096594
8.317589371879556
9.424970755468646
1.855921716267833
2.1031003927630096
2.383149364728329
2.700468621108704
3.0600243124403637
3.467438231157494
3.929072429473509
4.452093568589473
2.103100392759286
2.383294195509656
2.7006949293830393
3.0603070409737345
3.467760627989367
3.929420401575389
4.452476478413953
5.044991796352701
2.383149364724691
2.7006949293824283
3.0603903000771395
3.4679048016808323
3.9296182562076556
4.452739397506065
5.045407656881105
5.716758405633381
2.700468621106366
3.0603070409738513
3.467904801681001
3.9296853199575423
4.452877345859466
5.045648243599924
5.7172199652061275
6.477944796228131
3.0600243124421196
3.4677606279892634
3.9296182562076774
4.452877345859422
5.045730269266779
5.717432617195031
6.478434202747442
7.340464269669238
3.467438231158341
3.9294204015747547
4.452739397505769
5.045648243599668
5.717432617194631
6.478583869686548
7.340945642296933
8.317805889815084
3.929072429472392
4.4524764784131925
5.045407656880295
5.717219965205197
6.478434202746314
7.340945642296011
8.318193449469053
9.425238818817778
4.452093568590115
5.044991796348509
5.716758405631806
6.477944796226424
7.340464269664234
8.317805889809904
9.425238818816583
10.679970397856739
2.10304345264681
2.383149364724507
2.700498241936015
3.0600753519412773
3.467508232036599
3.9291659936871746
4.452254646457573
5.044894868586768
2.3831493647249458
2.7006949293822666
3.0603903000770476
3.467904801681109
3.929618256208209
4.452739397506107
5.045407656881043
5.716758405637362
2.700498241934339
3.0603903000766093
3.468027934008862
3.9298330916016946
4.453034677649971
5.045796148842666
5.717329850141469
6.477985830117213
3.0600753519368338
3.467904801680888
3.9298330916016218
4.453136064645898
5.046004327761783
5.7176865128278545
6.478619714009801
7.3405329262039265
3.4675082320366
3.929618256207762
4.453034677649867
5.0460043277617155
5.717810086367549
6.478933177603615
7.341200338965506
8.317900089963299
3.9291659936838816
4.4527393975058445
5.045796148842417
5.717686512827549
6.478933177603371
7.341417966717107
8.318546037284078
9.425370646524636
4.452254646455061
5.045407656880629
5.71732985014099
6.478619714009408
7.341200338964342
8.318546037283209
9.425871751768048
10.680240996700425
5.044894868585864
5.716758405635114
6.477985830119515
7.340532926203642
8.317900089962805
9.425370646521253
10.680240996698497
12.102008990404979
2.383062764121636
2.700468621103785
3.060075351938898
3.4675317437582707
3.9292144414296084
4.452340162171084
5.045073961848171
5.716617948616538
2.7004686211059488
3.060307040973524
3.4679048016807585
3.929685319957607
4.45287734585985
5.045648243600187
5.717219965206056
6.477944796228099
3.0600753519383144
3.467904801680826
3.929833091601641
4.453136064645986
5.046004327761912
5.717686512827887
6.478619714009945
7.34053292620353
3.4675317437566706
3.929685319957291
4.453136064645953
5.046127173522058
5.717938826294885
6.479048936327899
7.341282007712809
8.317929729119333
3.9292144414301178
4.4528773458594895
5.0460043277617865
5.717938826294807
6.479198719678335
7.341658446262995
8.318716907044399
9.425432943656952
4.452340162169573
5.04564824359995
5.71768651282769
6.479048936327656
7.341658446262747
8.318976671557948
9.426191109046208
10.680360196362129
5.045073961846188
5.717219965205943
6.478619714009753
7.341282007712266
8.318716907043484
9.426191109045392
10.680943528485798
12.102310212819491
5.716617948615359
6.477944796228267
7.340532926205478
8.317929729119424
9.425432943653261
10.680360196358519
12.102310212819837
13.71337709556261
2.700361256756238
3.0600243124370037
3.467508232037246
3.9292144414303416
4.452369018349286
5.045149837166163
5.71680911176504
6.477773694776293
3.060024312443293
3.4677606279895583
3.929618256207613
4.4528773458595605
5.04573026926715
5.717432617195292
6.478434202747099
7.340464269664302
3.467508232038126
3.9296182562078794
4.453034677650015
5.046004327761896
5.7178100863677574
6.478933177603709
7.341200338964789
8.31790008996598
3.9292144414270993
4.452877345859661
5.046004327761881
5.7179388262949065
6.479198719678425
7.341658446263004
8.318716907044386
9.425432943655105
4.4523690183516145
5.045730269266972
5.717810086367679
6.479198719678363
7.34181660903347
8.319120743201665
9.426294100429727
10.680397899577361
5.045149837168942
5.717432617195238
6.478933177603571
7.341658446262797
8.31912074320146
9.426575437886276
10.68123229987319
12.10241873990319
5.716809111765131
6.478434202747287
7.341200338964735
8.318716907043704
9.426294100428796
10.681232299872685
12.103065852937004
13.71370378040523
6.477773694777296
7.340464269666521
8.317900089964894
9.425432943652396
10.68039789957131
12.102418739896892
13.713703780407087
15.539288347491787
3.0599018932448128
3.467438231156799
3.929165993685312
4.452340162169291
5.0451498371653205
5.716862978169852
6.477964552449826
7.340268725096945
3.4674382311622276
3.929420401575652
4.45273939750602
5.045648243600211
5.717432617195471
6.478583869686682
7.3409456422964485
8.31780588980949
3.9291659936862118
4.452739397506401
5.045796148842718
5.717686512827883
6.478933177603705
7.341417966717263
8.318546037283523
9.42537064652303
4.452340162166046
5.045648243600323
5.717686512827889
6.479048936327889
7.341658446262979
8.318976671558044
9.426191109046043
10.680360196359885
5.045149837167067
5.717432617195328
6.4789331776036665
7.3416584462629375
8.319120743201594
9.426575437886342
10.681232299873407
12.102418739899361
5.716862978171281
6.478583869686975
7.341417966717161
8.318976671557879
9.4265754378862
10.681507096497036
12.103278175999307
13.713784707006758
6.477964552450815
7.340945642296636
8.318546037283461
9.426191109045508
10.681232299872502
12.103278175998893
13.714468018151468
15.539624816403705
7.340268725097444
8.317805889812433
9.425370646521852
10.680360196357649
12.102418739897999
13.713784707004042
15.53962481640514
17.60830680861399
3.4673054477688345
3.929072429474936
4.452254646457108
5.045073961849107
5.7168091117679
6.477964552451947
7.340428593145031
8.317589371879897
3.9290724294779356
4.452476478413827
5.045407656880794
5.717219965206157
6.478434202747447
7.3409456422966155
8.31819344946904
9.42523881881458
4.452254646459189
5.045407656881096
5.7173298501412795
6.478619714010026
7.3412003389649945
8.318546037283589
9.425871751767925
10.680240996698469
5.045073961847939
5.717219965206048
6.478619714010035
7.341282007712797
8.318716907044088
9.426191109045803
10.68094352848559
12.102310212820743
5.716809111767067
6.478434202747254
7.341200338964966
8.318716907044065
9.42629410042933
10.681232299872937
12.103065852936792
13.713703780407196
6.477964552452137
7.340945642296651
8.318546037283546
9.426191109045712
10.681232299872832
12.103278175999053
13.714468018151399
15.539624816404116
7.340428593145243
8.318193449469224
9.42587175176788
10.680943528485287
12.103065852936526
13.714468018151205
15.540268628186674
17.608604503795313
8.31758937187874
9.425238818815226
10.680240996698124
12.102310212820798
13.713703780406828
15.539624816403848
17.608604503795203
19.952789650070955
3.928919896372942
4.452093568587475
5.044894868582714
5.71661794861687
6.477773694780501
7.340268725098174
8.317589371878851
9.424970755469834
4.452093568589687
5.044991796345866
5.716758405633001
6.4779447962278045
7.34046426966613
8.317805889812067
9.425238818815698
10.679970397858131
5.044894868584869
5.716758405633012
6.477985830120677
7.340532926205963
8.317900089964253
9.425370646521566
10.680240996698302
12.102008990406441
5.716617948615685
6.47794479622784
7.340532926205951
8.317929729121207
9.425432943654286
10.680360196358897
12.10231021282103
13.713377095562816
6.4777736947787
7.3404642696660805
8.317900089964233
9.425432943654279
10.680397899572988
12.10241873989909
13.713703780407155
15.539288347489112
7.340268725097594
8.317805889812046
9.425370646521548
10.680360196358869
12.102418739899065
13.713784707005008
15.539624816403961
17.608306808611097
8.317589371878878
9.42523881881574
10.68024099669831
12.10231021282098
13.713703780407094
15.53962481640393
17.60860450379516
19.952789650070685
9.424970755469717
10.679970397857765
12.102008990406178
13.713377095562915
15.539288347489212
17.60830680861105
19.952789650070656
22.609299600710536
