# vtk DataFile Version 3.0
Generated by easyPDE
ASCII
DATASET UNSTRUCTURED_GRID
POINTS 729 double
0.0 0.0 0.0
0.0 0.125 0.0
0.0 0.25 0.0
0.0 0.375 0.0
0.0 0.5 0.0
0.0 0.625 0.0
0.0 0.75 0.0
0.0 0.875 0.0
0.0 1.0 0.0
0.125 0.0 0.0
0.125 0.125 0.0
0.125 0.25 0.0
0.125 0.375 0.0
0.125 0.5 0.0
0.125 0.625 0.0
0.125 0.75 0.0
0.125 0.875 0.0
0.125 1.0 0.0
0.25 0.0 0.0
0.25 0.125 0.0
0.25 0.25 0.0
0.25 0.375 0.0
0.25 0.5 0.0
0.25 0.625 0.0
0.25 0.75 0.0
0.25 0.875 0.0
0.25 1.0 0.0
0.375 0.0 0.0
0.375 0.125 0.0
0.375 0.25 0.0
0.375 0.375 0.0
0.375 0.5 0.0
0.375 0.625 0.0
0.375 0.75 0.0
0.375 0.875 0.0
0.375 1.0 0.0
0.5 0.0 0.0
0.5 0.125 0.0
0.5 0.25 0.0
0.5 0.375 0.0
0.5 0.5 0.0
0.5 0.625 0.0
0.5 0.75 0.0
0.5 0.875 0.0
0.5 1.0 0.0
0.625 0.0 0.0
0.625 0.125 0.0
0.625 0.25 0.0
0.625 0.375 0.0
0.625 0.5 0.0
0.625 0.625 0.0
0.625 0.75 0.0
0.625 0.875 0.0
0.625 1.0 0.0
0.75 0.0 0.0
0.75 0.125 0.0
0.75 0.25 0.0
0.75 0.375 0.0
0.75 0.5 0.0
0.75 0.625 0.0
0.75 0.75 0.0
0.75 0.875 0.0
0.75 1.0 0.0
0.875 0.0 0.0
0.875 0.125 0.0
0.875 0.25 0.0
0.875 0.375 0.0
0.875 0.5 0.0
0.875 0.625 0.0
0.875 0.75 0.0
0.875 0.875 0.0
0.875 1.0 0.0
1.0 0.0 0.0
1.0 0.125 0.0
1.0 0.25 0.0
1.0 0.375 0.0
1.0 0.5 0.0
1.0 0.625 0.0
1.0 0.75 0.0
1.0 0.875 0.0
1.0 1.0 0.0
0.0 0.0 0.125
0.0 0.125 0.125
0.0 0.25 0.125
0.0 0.375 0.125
0.0 0.5 0.125
0.0 0.625 0.125
0.0 0.75 0.125
0.0 0.875 0.125
0.0 1.0 0.125
0.125 0.0 0.125
0.125 0.125 0.125
0.125 0.25 0.125
0.125 0.375 0.125
0.125 0.5 0.125
0.125 0.625 0.125
0.125 0.75 0.125
0.125 0.875 0.125
0.125 1.0 0.125
0.25 0.0 0.125
0.25 0.125 0.125
0.25 0.25 0.125
0.25 0.375 0.125
0.25 0.5 0.125
0.25 0.625 0.125
0.25 0.75 0.125
0.25 0.875 0.125
0.25 1.0 0.125
0.375 0.0 0.125
0.375 0.125 0.125
0.375 0.25 0.125
0.375 0.375 0.125
0.375 0.5 0.125
0.375 0.625 0.125
0.375 0.75 0.125
0.375 0.875 0.125
0.375 1.0 0.125
0.5 0.0 0.125
0.5 0.125 0.125
0.5 0.25 0.125
0.5 0.375 0.125
0.5 0.5 0.125
0.5 0.625 0.125
0.5 0.75 0.125
0.5 0.875 0.125
0.5 1.0 0.125
0.625 0.0 0.125
0.625 0.125 0.125
0.625 0.25 0.125
0.625 0.375 0.125
0.625 0.5 0.125
0.625 0.625 0.125
0.625 0.75 0.125
0.625 0.875 0.125
0.625 1.0 0.125
0.75 0.0 0.125
0.75 0.125 0.125
0.75 0.25 0.125
0.75 0.375 0.125
0.75 0.5 0.125
0.75 0.625 0.125
0.75 0.75 0.125
0.75 0.875 0.125
0.75 1.0 0.125
0.875 0.0 0.125
0.875 0.125 0.125
0.875 0.25 0.125
0.875 0.375 0.125
0.875 0.5 0.125
0.875 0.625 0.125
0.875 0.75 0.125
0.875 0.875 0.125
0.875 1.0 0.125
1.0 0.0 0.125
1.0 0.125 0.125
1.0 0.25 0.125
1.0 0.375 0.125
1.0 0.5 0.125
1.0 0.625 0.125
1.0 0.75 0.125
1.0 0.875 0.125
1.0 1.0 0.125
0.0 0.0 0.25
0.0 0.125 0.25
0.0 0.25 0.25
0.0 0.375 0.25
0.0 0.5 0.25
0.0 0.625 0.25
0.0 0.75 0.25
0.0 0.875 0.25
0.0 1.0 0.25
0.125 0.0 0.25
0.125 0.125 0.25
0.125 0.25 0.25
0.125 0.375 0.25
0.125 0.5 0.25
0.125 0.625 0.25
0.125 0.75 0.25
0.125 0.875 0.25
0.125 1.0 0.25
0.25 0.0 0.25
0.25 0.125 0.25
0.25 0.25 0.25
0.25 0.375 0.25
0.25 0.5 0.25
0.25 0.625 0.25
0.25 0.75 0.25
0.25 0.875 0.25
0.25 1.0 0.25
0.375 0.0 0.25
0.375 0.125 0.25
0.375 0.25 0.25
0.375 0.375 0.25
0.375 0.5 0.25
0.375 0.625 0.25
0.375 0.75 0.25
0.375 0.875 0.25
0.375 1.0 0.25
0.5 0.0 0.25
0.5 0.125 0.25
0.5 0.25 0.25
0.5 0.375 0.25
0.5 0.5 0.25
0.5 0.625 0.25
0.5 0.75 0.25
0.5 0.875 0.25
0.5 1.0 0.25
0.625 0.0 0.25
0.625 0.125 0.25
0.625 0.25 0.25
0.625 0.375 0.25
0.625 0.5 0.25
0.625 0.625 0.25
0.625 0.75 0.25
0.625 0.875 0.25
0.625 1.0 0.25
0.75 0.0 0.25
0.75 0.125 0.25
0.75 0.25 0.25
0.75 0.375 0.25
0.75 0.5 0.25
0.75 0.625 0.25
0.75 0.75 0.25
0.75 0.875 0.25
0.75 1.0 0.25
0.875 0.0 0.25
0.875 0.125 0.25
0.875 0.25 0.25
0.875 0.375 0.25
0.875 0.5 0.25
0.875 0.625 0.25
0.875 0.75 0.25
0.875 0.875 0.25
0.875 1.0 0.25
1.0 0.0 0.25
1.0 0.125 0.25
1.0 0.25 0.25
1.0 0.375 0.25
1.0 0.5 0.25
1.0 0.625 0.25
1.0 0.75 0.25
1.0 0.875 0.25
1.0 1.0 0.25
0.0 0.0 0.375
0.0 0.125 0.375
0.0 0.25 0.375
0.0 0.375 0.375
0.0 0.5 0.375
0.0 0.625 0.375
0.0 0.75 0.375
0.0 0.875 0.375
0.0 1.0 0.375
0.125 0.0 0.375
0.125 0.125 0.375
0.125 0.25 0.375
0.125 0.375 0.375
0.125 0.5 0.375
0.125 0.625 0.375
0.125 0.75 0.375
0.125 0.875 0.375
0.125 1.0 0.375
0.25 0.0 0.375
0.25 0.125 0.375
0.25 0.25 0.375
0.25 0.375 0.375
0.25 0.5 0.375
0.25 0.625 0.375
0.25 0.75 0.375
0.25 0.875 0.375
0.25 1.0 0.375
0.375 0.0 0.375
0.375 0.125 0.375
0.375 0.25 0.375
0.375 0.375 0.375
0.375 0.5 0.375
0.375 0.625 0.375
0.375 0.75 0.375
0.375 0.875 0.375
0.375 1.0 0.375
0.5 0.0 0.375
0.5 0.125 0.375
0.5 0.25 0.375
0.5 0.375 0.375
0.5 0.5 0.375
0.5 0.625 0.375
0.5 0.75 0.375
0.5 0.875 0.375
0.5 1.0 0.375
0.625 0.0 0.375
0.625 0.125 0.375
0.625 0.25 0.375
0.625 0.375 0.375
0.625 0.5 0.375
0.625 0.625 0.375
0.625 0.75 0.375
0.625 0.875 0.375
0.625 1.0 0.375
0.75 0.0 0.375
0.75 0.125 0.375
0.75 0.25 0.375
0.75 0.375 0.375
0.75 0.5 0.375
0.75 0.625 0.375
0.75 0.75 0.375
0.75 0.875 0.375
0.75 1.0 0.375
0.875 0.0 0.375
0.875 0.125 0.375
0.875 0.25 0.375
0.875 0.375 0.375
0.875 0.5 0.375
0.875 0.625 0.375
0.875 0.75 0.375
0.875 0.875 0.375
0.875 1.0 0.375
1.0 0.0 0.375
1.0 0.125 0.375
1.0 0.25 0.375
1.0 0.375 0.375
1.0 0.5 0.375
1.0 0.625 0.375
1.0 0.75 0.375
1.0 0.875 0.375
1.0 1.0 0.375
0.0 0.0 0.5
0.0 0.125 0.5
0.0 0.25 0.5
0.0 0.375 0.5
0.0 0.5 0.5
0.0 0.625 0.5
0.0 0.75 0.5
0.0 0.875 0.5
0.0 1.0 0.5
0.125 0.0 0.5
0.125 0.125 0.5
0.125 0.25 0.5
0.125 0.375 0.5
0.125 0.5 0.5
0.125 0.625 0.5
0.125 0.75 0.5
0.125 0.875 0.5
0.125 1.0 0.5
0.25 0.0 0.5
0.25 0.125 0.5
0.25 0.25 0.5
0.25 0.375 0.5
0.25 0.5 0.5
0.25 0.625 0.5
0.25 0.75 0.5
0.25 0.875 0.5
0.25 1.0 0.5
0.375 0.0 0.5
0.375 0.125 0.5
0.375 0.25 0.5
0.375 0.375 0.5
0.375 0.5 0.5
0.375 0.625 0.5
0.375 0.75 0.5
0.375 0.875 0.5
0.375 1.0 0.5
0.5 0.0 0.5
0.5 0.125 0.5
0.5 0.25 0.5
0.5 0.375 0.5
0.5 0.5 0.5
0.5 0.625 0.5
0.5 0.75 0.5
0.5 0.875 0.5
0.5 1.0 0.5
0.625 0.0 0.5
0.625 0.125 0.5
0.625 0.25 0.5
0.625 0.375 0.5
0.625 0.5 0.5
0.625 0.625 0.5
0.625 0.75 0.5
0.625 0.875 0.5
0.625 1.0 0.5
0.75 0.0 0.5
0.75 0.125 0.5
0.75 0.25 0.5
0.75 0.375 0.5
0.75 0.5 0.5
0.75 0.625 0.5
0.75 0.75 0.5
0.75 0.875 0.5
0.75 1.0 0.5
0.875 0.0 0.5
0.875 0.125 0.5
0.875 0.25 0.5
0.875 0.375 0.5
0.875 0.5 0.5
0.875 0.625 0.5
0.875 0.75 0.5
0.875 0.875 0.5
0.875 1.0 0.5
1.0 0.0 0.5
1.0 0.125 0.5
1.0 0.25 0.5
1.0 0.375 0.5
1.0 0.5 0.5
1.0 0.625 0.5
1.0 0.75 0.5
1.0 0.875 0.5
1.0 1.0 0.5
0.0 0.0 0.625
0.0 0.125 0.625
0.0 0.25 0.625
0.0 0.375 0.625
0.0 0.5 0.625
0.0 0.625 0.625
0.0 0.75 0.625
0.0 0.875 0.625
0.0 1.0 0.625
0.125 0.0 0.625
0.125 0.125 0.625
0.125 0.25 0.625
0.125 0.375 0.625
0.125 0.5 0.625
0.125 0.625 0.625
0.125 0.75 0.625
0.125 0.875 0.625
0.125 1.0 0.625
0.25 0.0 0.625
0.25 0.125 0.625
0.25 0.25 0.625
0.25 0.375 0.625
0.25 0.5 0.625
0.25 0.625 0.625
0.25 0.75 0.625
0.25 0.875 0.625
0.25 1.0 0.625
0.375 0.0 0.625
0.375 0.125 0.625
0.375 0.25 0.625
0.375 0.375 0.625
0.375 0.5 0.625
0.375 0.625 0.625
0.375 0.75 0.625
0.375 0.875 0.625
0.375 1.0 0.625
0.5 0.0 0.625
0.5 0.125 0.625
0.5 0.25 0.625
0.5 0.375 0.625
0.5 0.5 0.625
0.5 0.625 0.625
0.5 0.75 0.625
0.5 0.875 0.625
0.5 1.0 0.625
0.625 0.0 0.625
0.625 0.125 0.625
0.625 0.25 0.625
0.625 0.375 0.625
0.625 0.5 0.625
0.625 0.625 0.625
0.625 0.75 0.625
0.625 0.875 0.625
0.625 1.0 0.625
0.75 0.0 0.625
0.75 0.125 0.625
0.75 0.25 0.625
0.75 0.375 0.625
0.75 0.5 0.625
0.75 0.625 0.625
0.75 0.75 0.625
0.75 0.875 0.625
0.75 1.0 0.625
0.875 0.0 0.625
0.875 0.125 0.625
0.875 0.25 0.625
0.875 0.375 0.625
0.875 0.5 0.625
0.875 0.625 0.625
0.875 0.75 0.625
0.875 0.875 0.625
0.875 1.0 0.625
1.0 0.0 0.625
1.0 0.125 0.625
1.0 0.25 0.625
1.0 0.375 0.625
1.0 0.5 0.625
1.0 0.625 0.625
1.0 0.75 0.625
1.0 0.875 0.625
1.0 1.0 0.625
0.0 0.0 0.75
0.0 0.125 0.75
0.0 0.25 0.75
0.0 0.375 0.75
0.0 0.5 0.75
0.0 0.625 0.75
0.0 0.75 0.75
0.0 0.875 0.75
0.0 1.0 0.75
0.125 0.0 0.75
0.125 0.125 0.75
0.125 0.25 0.75
0.125 0.375 0.75
0.125 0.5 0.75
0.125 0.625 0.75
0.125 0.75 0.75
0.125 0.875 0.75
0.125 1.0 0.75
0.25 0.0 0.75
0.25 0.125 0.75
0.25 0.25 0.75
0.25 0.375 0.75
0.25 0.5 0.75
0.25 0.625 0.75
0.25 0.75 0.75
0.25 0.875 0.75
0.25 1.0 0.75
0.375 0.0 0.75
0.375 0.125 0.75
0.375 0.25 0.75
0.375 0.375 0.75
0.375 0.5 0.75
0.375 0.625 0.75
0.375 0.75 0.75
0.375 0.875 0.75
0.375 1.0 0.75
0.5 0.0 0.75
0.5 0.125 0.75
0.5 0.25 0.75
0.5 0.375 0.75
0.5 0.5 0.75
0.5 0.625 0.75
0.5 0.75 0.75
0.5 0.875 0.75
0.5 1.0 0.75
0.625 0.0 0.75
0.625 0.125 0.75
0.625 0.25 0.75
0.625 0.375 0.75
0.625 0.5 0.75
0.625 0.625 0.75
0.625 0.75 0.75
0.625 0.875 0.75
0.625 1.0 0.75
0.75 0.0 0.75
0.75 0.125 0.75
0.75 0.25 0.75
0.75 0.375 0.75
0.75 0.5 0.75
0.75 0.625 0.75
0.75 0.75 0.75
0.75 0.875 0.75
0.75 1.0 0.75
0.875 0.0 0.75
0.875 0.125 0.75
0.875 0.25 0.75
0.875 0.375 0.75
0.875 0.5 0.75
0.875 0.625 0.75
0.875 0.75 0.75
0.875 0.875 0.75
0.875 1.0 0.75
1.0 0.0 0.75
1.0 0.125 0.75
1.0 0.25 0.75
1.0 0.375 0.75
1.0 0.5 0.75
1.0 0.625 0.75
1.0 0.75 0.75
1.0 0.875 0.75
1.0 1.0 0.75
0.0 0.0 0.875
0.0 0.125 0.875
0.0 0.25 0.875
0.0 0.375 0.875
0.0 0.5 0.875
0.0 0.625 0.875
0.0 0.75 0.875
0.0 0.875 0.875
0.0 1.0 0.875
0.125 0.0 0.875
0.125 0.125 0.875
0.125 0.25 0.875
0.125 0.375 0.875
0.125 0.5 0.875
0.125 0.625 0.875
0.125 0.75 0.875
0.125 0.875 0.875
0.125 1.0 0.875
0.25 0.0 0.875
0.25 0.125 0.875
0.25 0.25 0.875
0.25 0.375 0.875
0.25 0.5 0.875
0.25 0.625 0.875
0.25 0.75 0.875
0.25 0.875 0.875
0.25 1.0 0.875
0.375 0.0 0.875
0.375 0.125 0.875
0.375 0.25 0.875
0.375 0.375 0.875
0.375 0.5 0.875
0.375 0.625 0.875
0.375 0.75 0.875
0.375 0.875 0.875
0.375 1.0 0.875
0.5 0.0 0.875
0.5 0.125 0.875
0.5 0.25 0.875
0.5 0.375 0.875
0.5 0.5 0.875
0.5 0.625 0.875
0.5 0.75 0.875
0.5 0.875 0.875
0.5 1.0 0.875
0.625 0.0 0.875
0.625 0.125 0.875
0.625 0.25 0.875
0.625 0.375 0.875
0.625 0.5 0.875
0.625 0.625 0.875
0.625 0.75 0.875
0.625 0.875 0.875
0.625 1.0 0.875
0.75 0.0 0.875
0.75 0.125 0.875
0.75 0.25 0.875
0.75 0.375 0.875
0.75 0.5 0.875
0.75 0.625 0.875
0.75 0.75 0.875
0.75 0.875 0.875
0.75 1.0 0.875
0.875 0.0 0.875
0.875 0.125 0.875
0.875 0.25 0.875
0.875 0.375 0.875
0.875 0.5 0.875
0.875 0.625 0.875
0.875 0.75 0.875
0.875 0.875 0.875
0.875 1.0 0.875
[...]
CELL_DATA 512
SCALARS Temperature double
LOOKUP_TABLE default
3.645035227834109
4.130418864717843
4.680398759371483
5.303592933594655
6.0097518127550025
6.809919932474062
7.716607670008546
8.743959429794478
4.130418864706183
4.680515410631315
5.303778347086682
6.009986148916711
6.810188418761891
7.71689462722189
8.74426670448007
9.90829070444108
4.680398759363102
5.303778347092282
6.010057145594287
6.810313949325772
7.717069252044132
8.744494731745139
9.908631199475582
11.227593388941417
5.303592933601603
6.009986148916459
6.810313949321784
7.717129612450518
8.744620197407656
9.908843090212292
11.227973600333215
12.722538761405504
6.009751812757424
6.810188418764556
7.717069252047
8.74462019740475
9.908918221524136
11.228159493168185
12.722939545058427
14.416517437412466
6.809919932466221
7.716894627223155
8.744494731754614
9.908843090214301
11.228159493154928
12.723066314195183
14.416904180116783
16.336026946971327
7.716607669996938
8.744266704470341
9.908631199476739
11.227973600337835
12.722939545043452
14.41690418009426
16.336331201498922
18.51108399091321
8.743959429791444
9.908290704435496
11.227593388935487
12.722538761402891
14.416517437408372
16.336026946960974
18.51108399091175
20.97563004492263
4.130418864706859
4.680515410634939
5.303778347101915
6.009986148912883
6.810188418759317
7.716894627234021
8.74426670447696
9.908290704432822
4.680515410623351
5.304082702025289
6.010481496670261
6.8108186816649665
7.717616851562732
8.745035201881608
9.909082919836388
11.227784153753497
5.3037783470864905
6.010481496670133
6.811019096659803
7.717972431269186
8.745529871484962
9.909726252541754
11.228684676859874
12.722828743937184
6.009986148914897
6.810818681665046
7.717972431269355
8.745701966915698
9.910083336195349
11.229282940893839
12.723833204451449
14.416878246719971
6.810188418763695
7.717616851562205
8.745529871484141
9.910083336194871
11.229496442506765
12.72435661809579
14.417930720891247
16.336441288905263
7.716894627225833
8.745035201880677
9.909726252540654
11.229282940892645
12.724356618095438
14.418285499402165
16.337442487269275
18.511535202765536
8.74426670447005
9.909082919835999
11.228684676859974
12.723833204448965
14.417930720890432
16.337442487270543
18.51229273972817
20.97614844108353
9.908290704435814
11.227784153758575
12.722828743931496
14.41687824671345
16.336441288894335
18.51153520275207
20.976148441081822
23.768652574088158
4.680398759362738
5.303778347088067
6.010057145600825
6.81031394932663
7.717069252043099
8.744494731756195
9.908631199483285
11.227593388934308
5.303778347090422
6.010481496670681
6.81101909665958
7.717972431269178
8.745529871484958
9.909726252541482
11.228684676859643
12.722828743930108
6.01005714559726
6.811019096660516
7.718270995813904
8.746062465837184
9.910467733912029
11.229642241823
12.7240977097829
14.416976496145054
6.810313949318993
7.717972431270532
8.746062465837365
9.910728067021926
11.23018143897475
12.724990255481073
14.418391746838541
16.33661148831734
7.7170692520394555
8.745529871485246
9.910467733911984
11.230181438974519
12.725312144147562
14.4191694237276
16.33808537414011
18.511772629852032
8.744494731751473
9.90972625254115
11.229642241822559
12.72499025548045
14.419169423727288
16.338607317755127
18.51315422653383
20.976469008739272
9.908631199473138
11.22868467685972
12.724097709781754
14.418391746837855
16.338085374138853
18.51315422653387
20.977477858568864
23.769202490713585
11.227593388935565
12.722828743938846
14.41697649614859
16.336611488308208
18.5117726298501
20.976469008735695
23.769202490711912
26.93345334134522
5.303592933599248
6.009986148912829
6.810313949322665
7.717129612456372
8.744620197408153
9.908843090199866
11.227973600338562
12.722538761402417
6.009986148915328
6.810818681665037
7.717972431268965
8.745701966915203
9.91008333619511
11.229282940894604
12.723833204448898
14.416878246714289
6.810313949325394
7.717972431270381
8.74606246583734
9.910728067021985
11.230181438974933
12.724990255481002
14.41839174683974
16.336611488304968
7.717129612452357
8.745701966916279
9.9107280670224
11.230497931122569
12.72564589402247
14.419471915260113
16.338300396594327
18.51185101660136
8.744620197401755
9.910083336196383
11.230181438974938
12.725645894022357
14.419863339686325
16.339240186637983
18.513607008984728
20.976634778866046
9.908843090214079
11.229282940893853
12.724990255480833
14.41947191525947
16.339240186637596
18.514234977272057
20.97827359648297
23.769498294336298
11.227973600334998
12.723833204450301
14.418391746838235
16.338300396593418
18.513607008982806
20.978273596481234
23.770685092203166
26.934067827530598
12.722538761400305
14.416878246715951
16.33661148831237
18.51185101659102
20.97663477886221
23.769498294349525
26.93406782753336
30.519613195281845
6.009751812754921
6.8101884187591155
7.7170692520427675
8.744620197401897
9.90891822153019
11.228159493156664
12.722939545038951
14.416517437413074
6.810188418766976
7.7176168515631645
8.745529871484019
9.910083336195491
11.229496442507006
12.72435661809587
14.417930720890649
16.33644128890711
7.717069252049099
8.74552987148515
9.910467733912329
11.230181438974848
12.725312144147921
14.419169423727865
16.338085374140377
18.511772629854114
8.744620197397913
9.910083336196852
11.2301814389751
12.725645894022573
14.41986333968652
16.339240186638143
18.51360700898493
20.976634778875063
9.908918221531184
11.229496442507472
12.725312144148008
14.4198633396864
16.339655612441806
18.514615698784453
20.978547389063273
23.76959888517388
11.22815949316993
12.724356618095799
14.419169423727576
16.33924018663756
18.51461569878389
20.9792262870808
23.771393334765072
26.934332435315252
12.722939545040774
14.417930720891594
16.338085374139315
18.51360700898315
20.978547389061674
23.771393334764568
26.935641750353703
30.520270890813997
14.41651743741173
16.336441288907967
18.51177262985727
20.976634778865748
23.769598885158512
26.934332435309425
30.520270890815702
34.5832429725101
6.8099199324723605
7.716894627228216
8.74449473174811
9.908843090204241
11.228159493168455
12.723066314203589
14.416904180089604
16.336026946966292
7.716894627235408
8.745035201882054
9.90972625254128
11.229282940894318
12.724356618096397
14.418285499401307
16.337442487269957
18.51153520276749
8.744494731757916
9.909726252541837
11.229642241823402
12.724990255481178
14.419169423727816
16.338607317755482
18.513154226534592
20.976469008737492
9.908843090201858
11.229282940895457
12.724990255481266
14.41947191526006
16.33924018663809
18.514234977272434
20.97827359648234
23.76949829435351
11.228159493170633
12.724356618096214
14.419169423727844
16.33924018663798
18.514615698784237
20.979226287080973
23.771393334765897
26.93433243531831
12.723066314205667
14.418285499401703
16.338607317755155
18.514234977271904
20.979226287080635
23.772047102606486
26.936137887003873
30.52045812361091
14.416904180090393
16.337442487269943
18.513154226533896
20.9782735964814
23.771393334763538
26.936137887003163
30.521808285492995
34.583897688499334
16.3360269469658
18.5115352027728
20.976469008738388
23.769498294344427
26.934332435316904
30.5204581236056
34.58389768849806
39.18791138825345
7.716607670011166
8.744266704479772
9.908631199473922
11.227973600336481
12.72293954505863
14.416904180107759
16.33633120149333
18.511083990913
8.744266704480149
9.90908291983752
11.228684676860805
12.723833204450381
14.41793072089168
16.337442487270017
18.512292739727446
20.976148441084757
9.90863119947701
11.22868467686141
12.724097709782825
14.418391746839246
16.33808537414009
18.513154226533963
20.97747785856967
23.769202490705688
11.227973600337926
12.723833204450493
14.418391746839326
16.338300396595162
18.513607008984266
20.97827359648206
23.77068509220441
26.934067827524295
12.722939545055516
14.417930720891636
16.338085374140007
18.513607008984177
20.97854738906318
23.771393334765047
26.935641750353966
30.52027089081255
14.416904180107412
16.33744248726963
18.51315422653381
20.978273596481827
23.771393334764802
26.93613788700359
30.52180828549305
34.58389768849792
16.336331201493753
18.512292739727513
20.9774778585695
23.770685092203752
26.9356417503534
30.521808285492636
34.58511574811791
39.188457370566944
18.51108399091132
20.97614844108491
23.769202490705275
26.934067827523165
30.520270890811606
34.58389768849711
39.18845737056633
44.405635192909486
8.743959429793685
9.908290704433083
11.227593388935606
12.722538761408224
14.416517437414832
16.336026946964534
18.511083990913107
20.975630044927215
9.908290704434142
11.22778415375123
12.722828743934329
14.416878246719861
16.33644128890043
18.511535202759497
20.9761484410829
23.768652574089124
11.227593388934629
12.722828743934546
14.416976496151229
16.336611488313217
18.511772629854775
20.97646900873841
23.769202490706526
26.933453341354586
12.722538761405847
14.416878246720142
16.336611488313203
18.51185101659246
20.976634778871748
23.769498294350015
26.93406782752372
30.51961319529369
14.416517437411631
16.336441288900392
18.51177262985474
20.976634778871716
23.769598885167888
26.93433243531637
30.520270890811997
34.58324297251082
16.336026946961894
18.511535202759447
20.976469008738334
23.769498294349944
26.93433243531632
30.52045812360741
34.58389768849733
39.18791138825104
18.511083990911402
20.976148441083026
23.76920249070661
26.934067827523663
30.520270890811933
34.58389768849729
39.18845737056646
44.40563519290937
20.975630044927755
23.768652574088662
26.933453341353562
30.519613195293427
34.58324297251053
39.187911388250875
44.40563519290925
50.31786002146954
