# vtk DataFile Version 3.0
Generated by easyPDE
ASCII
DATASET UNSTRUCTURED_GRID
POINTS 729 double
0.0 0.0 0.0
0.0 0.125 0.0
0.0 0.25 0.0
0.0 0.375 0.0
0.0 0.5 0.0
0.0 0.625 0.0
0.0 0.75 0.0
0.0 0.875 0.0
0.0 1.0 0.0
0.125 0.0 0.0
0.125 0.125 0.0
0.125 0.25 0.0
0.125 0.375 0.0
0.125 0.5 0.0
0.125 0.625 0.0
0.125 0.75 0.0
0.125 0.875 0.0
0.125 1.0 0.0
0.25 0.0 0.0
0.25 0.125 0.0
0.25 0.25 0.0
0.25 0.375 0.0
0.25 0.5 0.0
0.25 0.625 0.0
0.25 0.75 0.0
0.25 0.875 0.0
0.25 1.0 0.0
0.375 0.0 0.0
0.375 0.125 0.0
0.375 0.25 0.0
0.375 0.375 0.0
0.375 0.5 0.0
0.375 0.625 0.0
0.375 0.75 0.0
0.375 0.875 0.0
0.375 1.0 0.0
0.5 0.0 0.0
0.5 0.125 0.0
0.5 0.25 0.0
0.5 0.375 0.0
0.5 0.5 0.0
0.5 0.625 0.0
0.5 0.75 0.0
0.5 0.875 0.0
0.5 1.0 0.0
0.625 0.0 0.0
0.625 0.125 0.0
0.625 0.25 0.0
0.625 0.375 0.0
0.625 0.5 0.0
0.625 0.625 0.0
0.625 0.75 0.0
0.625 0.875 0.0
0.625 1.0 0.0
0.75 0.0 0.0
0.75 0.125 0.0
0.75 0.25 0.0
0.75 0.375 0.0
0.75 0.5 0.0
0.75 0.625 0.0
0.75 0.75 0.0
0.75 0.875 0.0
0.75 1.0 0.0
0.875 0.0 0.0
0.875 0.125 0.0
0.875 0.25 0.0
0.875 0.375 0.0
0.875 0.5 0.0
0.875 0.625 0.0
0.875 0.75 0.0
0.875 0.875 0.0
0.875 1.0 0.0
1.0 0.0 0.0
1.0 0.125 0.0
1.0 0.25 0.0
1.0 0.375 0.0
1.0 0.5 0.0
1.0 0.625 0.0
1.0 0.75 0.0
1.0 0.875 0.0
1.0 1.0 0.0
0.0 0.0 0.125
0.0 0.125 0.125
0.0 0.25 0.125
0.0 0.375 0.125
0.0 0.5 0.125
0.0 0.625 0.125
0.0 0.75 0.125
0.0 0.875 0.125
0.0 1.0 0.125
0.125 0.0 0.125
0.125 0.125 0.125
0.125 0.25 0.125
0.125 0.375 0.125
0.125 0.5 0.125
0.125 0.625 0.125
0.125 0.75 0.125
0.125 0.875 0.125
0.125 1.0 0.125
0.25 0.0 0.125
0.25 0.125 0.125
0.25 0.25 0.125
0.25 0.375 0.125
0.25 0.5 0.125
0.25 0.625 0.125
0.25 0.75 0.125
0.25 0.875 0.125
0.25 1.0 0.125
0.375 0.0 0.125
0.375 0.125 0.125
0.375 0.25 0.125
0.375 0.375 0.125
0.375 0.5 0.125
0.375 0.625 0.125
0.375 0.75 0.125
0.375 0.875 0.125
0.375 1.0 0.125
0.5 0.0 0.125
0.5 0.125 0.125
0.5 0.25 0.125
0.5 0.375 0.125
0.5 0.5 0.125
0.5 0.625 0.125
0.5 0.75 0.125
0.5 0.875 0.125
0.5 1.0 0.125
0.625 0.0 0.125
0.625 0.125 0.125
0.625 0.25 0.125
0.625 0.375 0.125
0.625 0.5 0.125
0.625 0.625 0.125
0.625 0.75 0.125
0.625 0.875 0.125
0.625 1.0 0.125
0.75 0.0 0.125
0.75 0.125 0.125
0.75 0.25 0.125
0.75 0.375 0.125
0.75 0.5 0.125
0.75 0.625 0.125
0.75 0.75 0.125
0.75 0.875 0.125
0.75 1.0 0.125
0.875 0.0 0.125
0.875 0.125 0.125
0.875 0.25 0.125
0.875 0.375 0.125
0.875 0.5 0.125
0.875 0.625 0.125
0.875 0.75 0.125
0.875 0.875 0.125
0.875 1.0 0.125
1.0 0.0 0.125
1.0 0.125 0.125
1.0 0.25 0.125
1.0 0.375 0.125
1.0 0.5 0.125
1.0 0.625 0.125
1.0 0.75 0.125
1.0 0.875 0.125
1.0 1.0 0.125
0.0 0.0 0.25
0.0 0.125 0.25
0.0 0.25 0.25
0.0 0.375 0.25
0.0 0.5 0.25
0.0 0.625 0.25
0.0 0.75 0.25
0.0 0.875 0.25
0.0 1.0 0.25
0.125 0.0 0.25
0.125 0.125 0.25
0.125 0.25 0.25
0.125 0.375 0.25
0.125 0.5 0.25
0.125 0.625 0.25
0.125 0.75 0.25
0.125 0.875 0.25
0.125 1.0 0.25
0.25 0.0 0.25
0.25 0.125 0.25
0.25 0.25 0.25
0.25 0.375 0.25
0.25 0.5 0.25
0.25 0.625 0.25
0.25 0.75 0.25
0.25 0.875 0.25
0.25 1.0 0.25
0.375 0.0 0.25
0.375 0.125 0.25
0.375 0.25 0.25
0.375 0.375 0.25
0.375 0.5 0.25
0.375 0.625 0.25
0.375 0.75 0.25
0.375 0.875 0.25
0.375 1.0 0.25
0.5 0.0 0.25
0.5 0.125 0.25
0.5 0.25 0.25
0.5 0.375 0.25
0.5 0.5 0.25
0.5 0.625 0.25
0.5 0.75 0.25
0.5 0.875 0.25
0.5 1.0 0.25
0.625 0.0 0.25
0.625 0.125 0.25
0.625 0.25 0.25
0.625 0.375 0.25
0.625 0.5 0.25
0.625 0.625 0.25
0.625 0.75 0.25
0.625 0.875 0.25
0.625 1.0 0.25
0.75 0.0 0.25
0.75 0.125 0.25
0.75 0.25 0.25
0.75 0.375 0.25
0.75 0.5 0.25
0.75 0.625 0.25
0.75 0.75 0.25
0.75 0.875 0.25
0.75 1.0 0.25
0.875 0.0 0.25
0.875 0.125 0.25
0.875 0.25 0.25
0.875 0.375 0.25
0.875 0.5 0.25
0.875 0.625 0.25
0.875 0.75 0.25
0.875 0.875 0.25
0.875 1.0 0.25
1.0 0.0 0.25
1.0 0.125 0.25
1.0 0.25 0.25
1.0 0.375 0.25
1.0 0.5 0.25
1.0 0.625 0.25
1.0 0.75 0.25
1.0 0.875 0.25
1.0 1.0 0.25
0.0 0.0 0.375
0.0 0.125 0.375
0.0 0.25 0.375
0.0 0.375 0.375
0.0 0.5 0.375
0.0 0.625 0.375
0.0 0.75 0.375
0.0 0.875 0.375
0.0 1.0 0.375
0.125 0.0 0.375
0.125 0.125 0.375
0.125 0.25 0.375
0.125 0.375 0.375
0.125 0.5 0.375
0.125 0.625 0.375
0.125 0.75 0.375
0.125 0.875 0.375
0.125 1.0 0.375
0.25 0.0 0.375
0.25 0.125 0.375
0.25 0.25 0.375
0.25 0.375 0.375
0.25 0.5 0.375
0.25 0.625 0.375
0.25 0.75 0.375
0.25 0.875 0.375
0.25 1.0 0.375
0.375 0.0 0.375
0.375 0.125 0.375
0.375 0.25 0.375
0.375 0.375 0.375
0.375 0.5 0.375
0.375 0.625 0.375
0.375 0.75 0.375
0.375 0.875 0.375
0.375 1.0 0.375
0.5 0.0 0.375
0.5 0.125 0.375
0.5 0.25 0.375
0.5 0.375 0.375
0.5 0.5 0.375
0.5 0.625 0.375
0.5 0.75 0.375
0.5 0.875 0.375
0.5 1.0 0.375
0.625 0.0 0.375
0.625 0.125 0.375
0.625 0.25 0.375
0.625 0.375 0.375
0.625 0.5 0.375
0.625 0.625 0.375
0.625 0.75 0.375
0.625 0.875 0.375
0.625 1.0 0.375
0.75 0.0 0.375
0.75 0.125 0.375
0.75 0.25 0.375
0.75 0.375 0.375
0.75 0.5 0.375
0.75 0.625 0.375
0.75 0.75 0.375
0.75 0.875 0.375
0.75 1.0 0.375
0.875 0.0 0.375
0.875 0.125 0.375
0.875 0.25 0.375
0.875 0.375 0.375
0.875 0.5 0.375
0.875 0.625 0.375
0.875 0.75 0.375
0.875 0.875 0.375
0.875 1.0 0.375
1.0 0.0 0.375
1.0 0.125 0.375
1.0 0.25 0.375
1.0 0.375 0.375
1.0 0.5 0.375
1.0 0.625 0.375
1.0 0.75 0.375
1.0 0.875 0.375
1.0 1.0 0.375
0.0 0.0 0.5
0.0 0.125 0.5
0.0 0.25 0.5
0.0 0.375 0.5
0.0 0.5 0.5
0.0 0.625 0.5
0.0 0.75 0.5
0.0 0.875 0.5
0.0 1.0 0.5
0.125 0.0 0.5
0.125 0.125 0.5
0.125 0.25 0.5
0.125 0.375 0.5
0.125 0.5 0.5
0.125 0.625 0.5
0.125 0.75 0.5
0.125 0.875 0.5
0.125 1.0 0.5
0.25 0.0 0.5
0.25 0.125 0.5
0.25 0.25 0.5
0.25 0.375 0.5
0.25 0.5 0.5
0.25 0.625 0.5
0.25 0.75 0.5
0.25 0.875 0.5
0.25 1.0 0.5
0.375 0.0 0.5
0.375 0.125 0.5
0.375 0.25 0.5
0.375 0.375 0.5
0.375 0.5 0.5
0.375 0.625 0.5
0.375 0.75 0.5
0.375 0.875 0.5
0.375 1.0 0.5
0.5 0.0 0.5
0.5 0.125 0.5
0.5 0.25 0.5
0.5 0.375 0.5
0.5 0.5 0.5
0.5 0.625 0.5
0.5 0.75 0.5
0.5 0.875 0.5
0.5 1.0 0.5
0.625 0.0 0.5
0.625 0.125 0.5
0.625 0.25 0.5
0.625 0.375 0.5
0.625 0.5 0.5
0.625 0.625 0.5
0.625 0.75 0.5
0.625 0.875 0.5
0.625 1.0 0.5
0.75 0.0 0.5
0.75 0.125 0.5
0.75 0.25 0.5
0.75 0.375 0.5
0.75 0.5 0.5
0.75 0.625 0.5
0.75 0.75 0.5
0.75 0.875 0.5
0.75 1.0 0.5
0.875 0.0 0.5
0.875 0.125 0.5
0.875 0.25 0.5
0.875 0.375 0.5
0.875 0.5 0.5
0.875 0.625 0.5
0.875 0.75 0.5
0.875 0.875 0.5
0.875 1.0 0.5
1.0 0.0 0.5
1.0 0.125 0.5
1.0 0.25 0.5
1.0 0.375 0.5
1.0 0.5 0.5
1.0 0.625 0.5
1.0 0.75 0.5
1.0 0.875 0.5
1.0 1.0 0.5
0.0 0.0 0.625
0.0 0.125 0.625
0.0 0.25 0.625
0.0 0.375 0.625
0.0 0.5 0.625
0.0 0.625 0.625
0.0 0.75 0.625
0.0 0.875 0.625
0.0 1.0 0.625
0.125 0.0 0.625
0.125 0.125 0.625
0.125 0.25 0.625
0.125 0.375 0.625
0.125 0.5 0.625
0.125 0.625 0.625
0.125 0.75 0.625
0.125 0.875 0.625
0.125 1.0 0.625
0.25 0.0 0.625
0.25 0.125 0.625
0.25 0.25 0.625
0.25 0.375 0.625
0.25 0.5 0.625
0.25 0.625 0.625
0.25 0.75 0.625
0.25 0.875 0.625
0.25 1.0 0.625
0.375 0.0 0.625
0.375 0.125 0.625
0.375 0.25 0.625
0.375 0.375 0.625
0.375 0.5 0.625
0.375 0.625 0.625
0.375 0.75 0.625
0.375 0.875 0.625
0.375 1.0 0.625
0.5 0.0 0.625
0.5 0.125 0.625
0.5 0.25 0.625
0.5 0.375 0.625
0.5 0.5 0.625
0.5 0.625 0.625
0.5 0.75 0.625
0.5 0.875 0.625
0.5 1.0 0.625
0.625 0.0 0.625
0.625 0.125 0.625
0.625 0.25 0.625
0.625 0.375 0.625
0.625 0.5 0.625
0.625 0.625 0.625
0.625 0.75 0.625
0.625 0.875 0.625
0.625 1.0 0.625
0.75 0.0 0.625
0.75 0.125 0.625
0.75 0.25 0.625
0.75 0.375 0.625
0.75 0.5 0.625
0.75 0.625 0.625
0.75 0.75 0.625
0.75 0.875 0.625
0.75 1.0 0.625
0.875 0.0 0.625
0.875 0.125 0.625
0.875 0.25 0.625
0.875 0.375 0.625
0.875 0.5 0.625
0.875 0.625 0.625
0.875 0.75 0.625
0.875 0.875 0.625
0.875 1.0 0.625
1.0 0.0 0.625
1.0 0.125 0.625
1.0 0.25 0.625
1.0 0.375 0.625
1.0 0.5 0.625
1.0 0.625 0.625
1.0 0.75 0.625
1.0 0.875 0.625
1.0 1.0 0.625
0.0 0.0 0.75
0.0 0.125 0.75
0.0 0.25 0.75
0.0 0.375 0.75
0.0 0.5 0.75
0.0 0.625 0.75
0.0 0.75 0.75
0.0 0.875 0.75
0.0 1.0 0.75
0.125 0.0 0.75
0.125 0.125 0.75
0.125 0.25 0.75
0.125 0.375 0.75
0.125 0.5 0.75
0.125 0.625 0.75
0.125 0.75 0.75
0.125 0.875 0.75
0.125 1.0 0.75
0.25 0.0 0.75
0.25 0.125 0.75
0.25 0.25 0.75
0.25 0.375 0.75
0.25 0.5 0.75
0.25 0.625 0.75
0.25 0.75 0.75
0.25 0.875 0.75
0.25 1.0 0.75
0.375 0.0 0.75
0.375 0.125 0.75
0.375 0.25 0.75
0.375 0.375 0.75
0.375 0.5 0.75
0.375 0.625 0.75
0.375 0.75 0.75
0.375 0.875 0.75
0.375 1.0 0.75
0.5 0.0 0.75
0.5 0.125 0.75
0.5 0.25 0.75
0.5 0.375 0.75
0.5 0.5 0.75
0.5 0.625 0.75
0.5 0.75 0.75
0.5 0.875 0.75
0.5 1.0 0.75
0.625 0.0 0.75
0.625 0.125 0.75
0.625 0.25 0.75
0.625 0.375 0.75
0.625 0.5 0.75
0.625 0.625 0.75
0.625 0.75 0.75
0.625 0.875 0.75
0.625 1.0 0.75
0.75 0.0 0.75
0.75 0.125 0.75
0.75 0.25 0.75
0.75 0.375 0.75
0.75 0.5 0.75
0.75 0.625 0.75
0.75 0.75 0.75
0.75 0.875 0.75
0.75 1.0 0.75
0.875 0.0 0.75
0.875 0.125 0.75
0.875 0.25 0.75
0.875 0.375 0.75
0.875 0.5 0.75
0.875 0.625 0.75
0.875 0.75 0.75
0.875 0.875 0.75
0.875 1.0 0.75
1.0 0.0 0.75
1.0 0.125 0.75
1.0 0.25 0.75
1.0 0.375 0.75
1.0 0.5 0.75
1.0 0.625 0.75
1.0 0.75 0.75
1.0 0.875 0.75
1.0 1.0 0.75
0.0 0.0 0.875
0.0 0.125 0.875
0.0 0.25 0.875
0.0 0.375 0.875
0.0 0.5 0.875
0.0 0.625 0.875
0.0 0.75 0.875
0.0 0.875 0.875
0.0 1.0 0.875
0.125 0.0 0.875
0.125 0.125 0.875
0.125 0.25 0.875
0.125 0.375 0.875
0.125 0.5 0.875
0.125 0.625 0.875
0.125 0.75 0.875
0.125 0.875 0.875
0.125 1.0 0.875
0.25 0.0 0.875
0.25 0.125 0.875
0.25 0.25 0.875
0.25 0.375 0.875
0.25 0.5 0.875
0.25 0.625 0.875
0.25 0.75 0.875
0.25 0.875 0.875
0.25 1.0 0.875
0.375 0.0 0.875
0.375 0.125 0.875
0.375 0.25 0.875
0.375 0.375 0.875
0.375 0.5 0.875
0.375 0.625 0.875
0.375 0.75 0.875
0.375 0.875 0.875
0.375 1.0 0.875
0.5 0.0 0.875
0.5 0.125 0.875
0.5 0.25 0.875
0.5 0.375 0.875
0.5 0.5 0.875
0.5 0.625 0.875
0.5 0.75 0.875
0.5 0.875 0.875
0.5 1.0 0.875
0.625 0.0 0.875
0.625 0.125 0.875
0.625 0.25 0.875
0.625 0.375 0.875
0.625 0.5 0.875
0.625 0.625 0.875
0.625 0.75 0.875
0.625 0.875 0.875
0.625 1.0 0.875
0.75 0.0 0.875
0.75 0.125 0.875
0.75 0.25 0.875
0.75 0.375 0.875
0.75 0.5 0.875
0.75 0.625 0.875
0.75 0.75 0.875
0.75 0.875 0.875
0.75 1.0 0.875
0.875 0.0 0.875
0.875 0.125 0.875
0.875 0.25 0.875
0.875 0.375 0.875
0.875 0.5 0.875
0.875 0.625 0.875
0.875 0.75 0.875
0.875 0.875 0.875
0.875 1.0 0.875
[...]
CELL_DATA 512
SCALARS Temperature double
LOOKUP_TABLE default
3.2981624032789885
3.7373545061425912
4.234997306920232
4.798886192893669
5.437844840829368
6.161866781648261
6.982269160077212
7.911857283896329
3.7373545061494773
4.235101041778364
4.799053808268264
5.438056149203099
6.162108798748463
6.982530821273423
7.91213032800631
8.96538478643287
4.234997306925246
4.7990538082648
5.438122685641206
6.162224028855646
6.982690150995167
7.912344174748147
8.965693043717817
10.159140012354376
4.79888619288769
5.438056149203584
6.162224028860525
6.982743493470161
7.912455340677795
8.965889013020773
10.159481788407433
11.511821369237872
5.437844840830528
6.162108798746317
6.982690150987694
7.9124553406806815
8.965955744470014
10.159656034354612
11.512182187022068
13.044595799066059
6.161866781656974
6.982530821276706
7.912344174736013
8.965889013012474
10.159656034368137
11.512305108521122
13.044944915216057
14.78143928396043
6.982269160085284
7.912130328016968
8.965693043714813
10.159481788390083
11.512182187026042
13.044944915234396
14.781704144066069
16.74950650758966
7.91185728389582
8.965384786438362
10.159140012357973
11.511821369227144
13.044595799066945
14.78143928397135
16.74950650758833
18.979524695155867
3.7373545061494458
4.235101041775231
4.799053808258828
5.438056149204875
6.1621087987466865
6.982530821271333
7.912130328014889
8.96538478644235
4.2351010417819674
4.7993274860108945
5.438506502268964
6.162679973368154
6.983185114202412
7.912833747033581
8.966097474531383
10.159307763311283
4.7990538082718155
5.438506502269927
6.162866273649369
6.9835097776499
7.9132831842621165
8.96669559556261
10.160128282889518
11.512082347678424
5.438056149209263
6.162679973368951
6.983509777649645
7.9134353127604395
8.967012048728144
10.16067798448969
11.51299203725719
13.044919791764931
6.162108798745533
6.983185114202807
7.913283184262385
8.967012048727598
10.160867640656154
11.513478534505897
13.045875023029692
14.78181127005308
6.982530821271567
7.912833747033098
8.966695595561742
10.16067798448868
11.513478534504623
13.046214489132746
14.78272382671543
16.7499175617327
7.912130328016879
8.966097474529445
10.160128282886468
11.512992037257213
13.045875023029083
14.782723826714207
16.75058942075655
18.979980248064294
8.965384786434926
10.159307763305709
11.51208234768224
13.044919791762958
14.781811270066488
16.74991756174809
18.97998024806075
21.50674854991344
4.234997306927227
4.799053808262692
5.438122685632376
6.1622240288531085
6.9826901509945465
7.912344174748503
8.965693043722643
10.159140012357167
4.799053808269417
5.438506502268174
6.162866273648175
6.983509777649245
7.913283184263454
8.966695595565033
10.16012828289076
11.512082347682032
5.438122685641175
6.162866273649159
6.983785243653246
7.913766970778263
8.967366297825572
10.161011413862601
11.513240991178641
13.045013609548144
6.162224028865748
6.983509777649521
7.913766970778232
8.96759634842584
10.161488915801336
11.51405583740748
13.046299024062145
14.781969296802068
6.9826901509988435
7.913283184262909
8.967366297825045
10.161488915801092
11.514341474176943
13.047016048688837
14.783311368309958
16.7501361468935
7.912344174746538
8.966695595563156
10.161011413861637
11.514055837406994
13.047016048688613
14.783804899323595
16.751400975800617
18.9802868126889
8.965693043724341
10.160128282888074
11.513240991178254
13.046299024061561
14.783311368310738
16.751400975800973
18.981192183622504
21.50724431856019
10.15914001235557
11.512082347672623
13.045013609542345
14.781969296813706
16.750136146899813
18.98028681269618
21.507244318562577
24.37038017546132
4.798886192889027
5.438056149198907
6.1622240288501375
6.982743493460247
7.912455340685078
8.965889013038957
10.15948178840511
11.511821369226798
5.438056149206169
6.1626799733674
6.983509777648479
7.913435312760894
8.967012048729936
10.16067798449191
11.512992037260812
13.044919791761197
6.162224028855378
6.983509777649429
7.913766970778145
8.967596348426047
10.16148891580187
11.514055837408264
13.046299024061176
14.781969296817918
6.98274349346949
7.913435312761102
8.967596348425873
10.161768297243883
11.514635713873993
13.047282436023192
14.783500477336297
16.750204991398586
7.912455340688585
8.96701204872863
10.16148891580138
11.514635713873751
13.047629265019363
14.784364189681867
16.75180097694372
18.98043307805265
8.965889013024324
10.160677984490412
11.514055837407254
13.047282436022904
14.784364189681673
16.752392353165384
18.98193068134325
21.50752196228068
10.159481788401486
11.512992037257689
13.046299024061344
14.783500477335085
16.751800976944363
18.981930681344135
21.50858614829781
24.370929287035892
11.51182136923109
13.044919791761881
14.78196929680875
16.750204991410516
18.980433078046712
21.507521962270054
24.370929287042273
27.615269194337163
5.4378448408317075
6.162108798746431
6.982690150991016
7.912455340682676
8.965955744469989
10.159656034371721
11.512182187033144
13.044595799062382
6.162108798746965
6.98318511420194
7.913283184262331
8.967012048728613
10.1608676406585
11.513478534507676
13.04587502303048
14.781811270053849
6.982690150991133
7.913283184263118
8.967366297825226
10.161488915801625
11.514341474177677
13.047016048689466
14.783311368310272
16.750136146895017
7.912455340687076
8.967012048728392
10.161488915801538
11.514635713873954
13.047629265019578
14.784364189681986
16.751800976944057
18.98043307804517
8.965955744467744
10.160867640657733
11.514341474177245
13.047629265019392
14.784732102171729
16.752729850676754
18.98217349841474
21.50761107736679
10.159656034359397
11.513478534506731
13.047016048688752
14.784364189681579
16.752729850676587
18.982814819793532
21.509253158477826
24.371182093505066
11.51218218703352
13.045875023028675
14.783311368309663
16.751800976943127
18.982173498413758
21.50925315847698
24.37235693185147
27.61585773578932
13.044595799063247
14.78181127005206
16.750136146889933
18.98043307804653
21.507611077363403
24.371182093502476
27.615857735791778
31.29219126309258
6.161866781653026
6.982530821272956
7.91234417474935
8.965889013029624
10.15965603436226
11.51230510851715
13.04494491523337
14.78143928396663
6.9825308212732615
7.912833747033324
8.966695595563067
10.160677984490123
11.513478534506628
13.04621448913471
14.782723826714609
16.74991756173077
7.912344174745227
8.966695595563579
10.161011413862102
11.514055837407716
13.047016048689278
14.78380489932381
16.75140097580006
18.98028681268761
8.965889013032129
10.160677984489624
11.514055837407689
13.047282436023224
14.784364189681876
16.752392353165355
18.98193068134365
21.507521962269358
10.159656034359841
11.513478534506445
13.047016048689
14.78436418968173
16.752729850676683
18.982814819793592
21.509253158477332
24.371182093503005
11.512305108515061
13.046214489134176
14.783804899323405
16.75239235316501
18.982814819793294
21.50987731539469
24.372840808918784
27.6160443874989
13.044944915238567
14.782723826714168
16.75140097579937
18.98193068134258
21.509253158476824
24.372840808918
27.617257568536246
31.292778246646748
14.78143928396561
16.749917561724715
18.98028681268616
21.507521962271444
24.37118209349893
27.616044387499997
31.29277824664744
35.45866578291301
6.982269160073699
7.912130328010654
8.965693043720702
10.159481788398809
11.512182187022356
13.044944915225058
14.781704144068971
16.74950650758926
7.912130328010632
8.966097474529967
10.160128282888637
11.512992037258734
13.045875023029565
14.782723826714825
16.75058942075596
18.979980248056236
8.965693043719021
10.160128282888493
11.513240991179256
13.046299024061973
14.7833113683103
16.75140097580033
18.981192183620426
21.507244318562837
10.159481788399152
11.51299203725854
13.046299024061918
14.783500477335474
16.751800976944008
18.9819306813433
21.5085861482963
24.370929287043122
11.512182187023077
13.04587502302938
14.783311368310207
16.75180097694394
18.98217349841393
21.509253158477087
24.37235693185135
27.615857735791256
13.044944915224622
14.782723826714914
16.751400975800113
18.981930681343055
21.509253158476913
24.3728408089182
27.617257568536285
31.29277824664625
14.781704144070241
16.75058942075577
18.981192183620113
21.508586148295983
24.372356931850916
27.61725756853609
31.293850236405564
35.45913361597311
16.749506507588947
18.97998024805709
21.507244318563743
24.37092928704411
27.615857735791323
31.292778246646183
35.459133615973634
40.179844818030844
7.911857283894959
8.965384786439596
10.15914001235595
11.511821369225448
13.044595799064282
14.7814392839695
16.749506507587654
18.979524695151795
8.96538478643797
10.15930776331519
11.512082347680707
13.044919791760588
14.781811270058963
16.74991756173754
18.979980248060343
21.50674854991079
10.15914001235557
11.512082347680629
13.045013609544245
14.781969296811306
16.75013614689273
18.980286812686458
21.50724431856304
24.37038017545265
11.51182136922672
13.044919791760353
14.781969296811308
16.750204991411742
18.980433078045266
21.5075219622696
24.370929287044326
27.615269194328526
13.044595799064954
14.781811270058926
16.7501361468927
18.98043307804525
21.507611077364714
24.37118209350155
27.61585773579165
31.29219126309238
14.78143928396979
16.749917561737558
18.98028681268641
21.50752196226953
24.371182093501485
27.61604438749914
31.29277824664632
35.45866578291419
16.749506507588936
18.97998024806023
21.50724431856294
24.370929287044248
27.615857735791526
31.292778246646275
35.4591336159733
40.17984481803078
18.979524695151333
21.506748549911386
24.370380175453725
27.615269194329148
31.292191263092985
35.45866578291431
40.179844818030894
45.52945887021229
